   2   2   1   0
  0.7411054E+03  0.5024975E-09  0.5024975E-09  0.6778156E-08  0.5000000E-15
  1.000000000000000E-004
  CAR 
 unknown system                          
      4.83648029    -62.56288138  301     -5.14947017      1.00000000
    -62.563  0.0000E+00  0.0000E+00
    -62.338  0.0000E+00  0.0000E+00
    -62.114  0.0000E+00  0.0000E+00
    -61.889  0.0000E+00  0.0000E+00
    -61.664  0.0000E+00  0.0000E+00
    -61.440  0.0000E+00  0.0000E+00
    -61.215  0.0000E+00  0.0000E+00
    -60.990  0.0000E+00  0.0000E+00
    -60.766  0.0000E+00  0.0000E+00
    -60.541  0.0000E+00  0.0000E+00
    -60.316  0.0000E+00  0.0000E+00
    -60.092  0.0000E+00  0.0000E+00
    -59.867  0.0000E+00  0.0000E+00
    -59.642  0.4299E-03  0.9659E-04
    -59.418  0.2007E+02  0.4510E+01
    -59.193  0.6632E+01  0.6000E+01
    -58.968  0.0000E+00  0.6000E+01
    -58.744  0.0000E+00  0.6000E+01
    -58.519  0.0000E+00  0.6000E+01
    -58.294  0.0000E+00  0.6000E+01
    -58.070  0.0000E+00  0.6000E+01
    -57.845  0.0000E+00  0.6000E+01
    -57.620  0.0000E+00  0.6000E+01
    -57.396  0.0000E+00  0.6000E+01
    -57.171  0.0000E+00  0.6000E+01
    -56.946  0.0000E+00  0.6000E+01
    -56.722  0.0000E+00  0.6000E+01
    -56.497  0.0000E+00  0.6000E+01
    -56.272  0.0000E+00  0.6000E+01
    -56.048  0.0000E+00  0.6000E+01
    -55.823  0.0000E+00  0.6000E+01
    -55.598  0.0000E+00  0.6000E+01
    -55.374  0.0000E+00  0.6000E+01
    -55.149  0.0000E+00  0.6000E+01
    -54.924  0.0000E+00  0.6000E+01
    -54.700  0.0000E+00  0.6000E+01
    -54.475  0.0000E+00  0.6000E+01
    -54.250  0.0000E+00  0.6000E+01
    -54.026  0.0000E+00  0.6000E+01
    -53.801  0.0000E+00  0.6000E+01
    -53.576  0.0000E+00  0.6000E+01
    -53.352  0.0000E+00  0.6000E+01
    -53.127  0.0000E+00  0.6000E+01
    -52.902  0.0000E+00  0.6000E+01
    -52.678  0.0000E+00  0.6000E+01
    -52.453  0.0000E+00  0.6000E+01
    -52.228  0.0000E+00  0.6000E+01
    -52.004  0.0000E+00  0.6000E+01
    -51.779  0.0000E+00  0.6000E+01
    -51.554  0.0000E+00  0.6000E+01
    -51.330  0.0000E+00  0.6000E+01
    -51.105  0.0000E+00  0.6000E+01
    -50.880  0.0000E+00  0.6000E+01
    -50.656  0.0000E+00  0.6000E+01
    -50.431  0.0000E+00  0.6000E+01
    -50.206  0.0000E+00  0.6000E+01
    -49.982  0.0000E+00  0.6000E+01
    -49.757  0.0000E+00  0.6000E+01
    -49.532  0.0000E+00  0.6000E+01
    -49.308  0.0000E+00  0.6000E+01
    -49.083  0.0000E+00  0.6000E+01
    -48.858  0.0000E+00  0.6000E+01
    -48.634  0.0000E+00  0.6000E+01
    -48.409  0.0000E+00  0.6000E+01
    -48.184  0.0000E+00  0.6000E+01
    -47.960  0.0000E+00  0.6000E+01
    -47.735  0.0000E+00  0.6000E+01
    -47.510  0.0000E+00  0.6000E+01
    -47.286  0.0000E+00  0.6000E+01
    -47.061  0.0000E+00  0.6000E+01
    -46.836  0.0000E+00  0.6000E+01
    -46.612  0.0000E+00  0.6000E+01
    -46.387  0.0000E+00  0.6000E+01
    -46.162  0.0000E+00  0.6000E+01
    -45.938  0.0000E+00  0.6000E+01
    -45.713  0.0000E+00  0.6000E+01
    -45.488  0.0000E+00  0.6000E+01
    -45.264  0.0000E+00  0.6000E+01
    -45.039  0.0000E+00  0.6000E+01
    -44.814  0.0000E+00  0.6000E+01
    -44.590  0.0000E+00  0.6000E+01
    -44.365  0.0000E+00  0.6000E+01
    -44.140  0.0000E+00  0.6000E+01
    -43.916  0.0000E+00  0.6000E+01
    -43.691  0.0000E+00  0.6000E+01
    -43.466  0.0000E+00  0.6000E+01
    -43.242  0.0000E+00  0.6000E+01
    -43.017  0.0000E+00  0.6000E+01
    -42.792  0.0000E+00  0.6000E+01
    -42.568  0.0000E+00  0.6000E+01
    -42.343  0.0000E+00  0.6000E+01
    -42.118  0.0000E+00  0.6000E+01
    -41.894  0.0000E+00  0.6000E+01
    -41.669  0.0000E+00  0.6000E+01
    -41.444  0.0000E+00  0.6000E+01
    -41.220  0.0000E+00  0.6000E+01
    -40.995  0.0000E+00  0.6000E+01
    -40.770  0.0000E+00  0.6000E+01
    -40.546  0.0000E+00  0.6000E+01
    -40.321  0.0000E+00  0.6000E+01
    -40.096  0.0000E+00  0.6000E+01
    -39.872  0.0000E+00  0.6000E+01
    -39.647  0.0000E+00  0.6000E+01
    -39.422  0.0000E+00  0.6000E+01
    -39.198  0.0000E+00  0.6000E+01
    -38.973  0.0000E+00  0.6000E+01
    -38.748  0.0000E+00  0.6000E+01
    -38.524  0.0000E+00  0.6000E+01
    -38.299  0.0000E+00  0.6000E+01
    -38.074  0.0000E+00  0.6000E+01
    -37.850  0.0000E+00  0.6000E+01
    -37.625  0.0000E+00  0.6000E+01
    -37.400  0.0000E+00  0.6000E+01
    -37.176  0.0000E+00  0.6000E+01
    -36.951  0.0000E+00  0.6000E+01
    -36.726  0.0000E+00  0.6000E+01
    -36.502  0.0000E+00  0.6000E+01
    -36.277  0.0000E+00  0.6000E+01
    -36.052  0.0000E+00  0.6000E+01
    -35.828  0.0000E+00  0.6000E+01
    -35.603  0.0000E+00  0.6000E+01
    -35.378  0.0000E+00  0.6000E+01
    -35.154  0.0000E+00  0.6000E+01
    -34.929  0.0000E+00  0.6000E+01
    -34.704  0.0000E+00  0.6000E+01
    -34.480  0.0000E+00  0.6000E+01
    -34.255  0.0000E+00  0.6000E+01
    -34.030  0.0000E+00  0.6000E+01
    -33.806  0.0000E+00  0.6000E+01
    -33.581  0.0000E+00  0.6000E+01
    -33.356  0.0000E+00  0.6000E+01
    -33.132  0.0000E+00  0.6000E+01
    -32.907  0.0000E+00  0.6000E+01
    -32.682  0.0000E+00  0.6000E+01
    -32.458  0.0000E+00  0.6000E+01
    -32.233  0.0000E+00  0.6000E+01
    -32.009  0.0000E+00  0.6000E+01
    -31.784  0.0000E+00  0.6000E+01
    -31.559  0.0000E+00  0.6000E+01
    -31.335  0.0000E+00  0.6000E+01
    -31.110  0.0000E+00  0.6000E+01
    -30.885  0.0000E+00  0.6000E+01
    -30.661  0.0000E+00  0.6000E+01
    -30.436  0.0000E+00  0.6000E+01
    -30.211  0.0000E+00  0.6000E+01
    -29.987  0.0000E+00  0.6000E+01
    -29.762  0.0000E+00  0.6000E+01
    -29.537  0.0000E+00  0.6000E+01
    -29.313  0.0000E+00  0.6000E+01
    -29.088  0.0000E+00  0.6000E+01
    -28.863  0.0000E+00  0.6000E+01
    -28.639  0.0000E+00  0.6000E+01
    -28.414  0.0000E+00  0.6000E+01
    -28.189  0.0000E+00  0.6000E+01
    -27.965  0.0000E+00  0.6000E+01
    -27.740  0.0000E+00  0.6000E+01
    -27.515  0.0000E+00  0.6000E+01
    -27.291  0.0000E+00  0.6000E+01
    -27.066  0.0000E+00  0.6000E+01
    -26.841  0.0000E+00  0.6000E+01
    -26.617  0.0000E+00  0.6000E+01
    -26.392  0.0000E+00  0.6000E+01
    -26.167  0.0000E+00  0.6000E+01
    -25.943  0.0000E+00  0.6000E+01
    -25.718  0.0000E+00  0.6000E+01
    -25.493  0.0000E+00  0.6000E+01
    -25.269  0.0000E+00  0.6000E+01
    -25.044  0.0000E+00  0.6000E+01
    -24.819  0.0000E+00  0.6000E+01
    -24.595  0.0000E+00  0.6000E+01
    -24.370  0.0000E+00  0.6000E+01
    -24.145  0.0000E+00  0.6000E+01
    -23.921  0.0000E+00  0.6000E+01
    -23.696  0.0000E+00  0.6000E+01
    -23.471  0.0000E+00  0.6000E+01
    -23.247  0.0000E+00  0.6000E+01
    -23.022  0.0000E+00  0.6000E+01
    -22.797  0.0000E+00  0.6000E+01
    -22.573  0.0000E+00  0.6000E+01
    -22.348  0.0000E+00  0.6000E+01
    -22.123  0.0000E+00  0.6000E+01
    -21.899  0.0000E+00  0.6000E+01
    -21.674  0.0000E+00  0.6000E+01
    -21.449  0.0000E+00  0.6000E+01
    -21.225  0.0000E+00  0.6000E+01
    -21.000  0.0000E+00  0.6000E+01
    -20.775  0.0000E+00  0.6000E+01
    -20.551  0.0000E+00  0.6000E+01
    -20.326  0.0000E+00  0.6000E+01
    -20.101  0.0000E+00  0.6000E+01
    -19.877  0.0000E+00  0.6000E+01
    -19.652  0.0000E+00  0.6000E+01
    -19.427  0.0000E+00  0.6000E+01
    -19.203  0.0000E+00  0.6000E+01
    -18.978  0.0000E+00  0.6000E+01
    -18.753  0.0000E+00  0.6000E+01
    -18.529  0.0000E+00  0.6000E+01
    -18.304  0.0000E+00  0.6000E+01
    -18.079  0.0000E+00  0.6000E+01
    -17.855  0.0000E+00  0.6000E+01
    -17.630  0.0000E+00  0.6000E+01
    -17.405  0.0000E+00  0.6000E+01
    -17.181  0.0000E+00  0.6000E+01
    -16.956  0.0000E+00  0.6000E+01
    -16.731  0.0000E+00  0.6000E+01
    -16.507  0.0000E+00  0.6000E+01
    -16.282  0.0000E+00  0.6000E+01
    -16.057  0.0000E+00  0.6000E+01
    -15.833  0.0000E+00  0.6000E+01
    -15.608  0.0000E+00  0.6000E+01
    -15.383  0.1022E-11  0.6000E+01
    -15.159  0.3989E+00  0.6090E+01
    -14.934  0.7645E+01  0.7807E+01
    -14.709  0.8578E+00  0.8000E+01
    -14.485  0.0000E+00  0.8000E+01
    -14.260  0.0000E+00  0.8000E+01
    -14.035  0.0000E+00  0.8000E+01
    -13.811  0.0000E+00  0.8000E+01
    -13.586  0.0000E+00  0.8000E+01
    -13.361  0.0000E+00  0.8000E+01
    -13.137  0.0000E+00  0.8000E+01
    -12.912  0.0000E+00  0.8000E+01
    -12.687  0.0000E+00  0.8000E+01
    -12.463  0.0000E+00  0.8000E+01
    -12.238  0.0000E+00  0.8000E+01
    -12.013  0.0000E+00  0.8000E+01
    -11.789  0.0000E+00  0.8000E+01
    -11.564  0.0000E+00  0.8000E+01
    -11.339  0.0000E+00  0.8000E+01
    -11.115  0.0000E+00  0.8000E+01
    -10.890  0.0000E+00  0.8000E+01
    -10.665  0.0000E+00  0.8000E+01
    -10.441  0.0000E+00  0.8000E+01
    -10.216  0.0000E+00  0.8000E+01
     -9.991  0.0000E+00  0.8000E+01
     -9.767  0.0000E+00  0.8000E+01
     -9.542  0.0000E+00  0.8000E+01
     -9.317  0.0000E+00  0.8000E+01
     -9.093  0.1535E-03  0.8000E+01
     -8.868  0.6809E+01  0.9530E+01
     -8.643  0.9268E+01  0.1161E+02
     -8.419  0.1771E+01  0.1201E+02
     -8.194  0.1541E+02  0.1547E+02
     -7.969  0.1125E+02  0.1800E+02
     -7.745  0.1903E-02  0.1800E+02
     -7.520  0.4851E-15  0.1800E+02
     -7.295  0.2816E-01  0.1801E+02
     -7.071  0.1476E+01  0.1834E+02
     -6.846  0.9430E+00  0.1855E+02
     -6.621  0.1994E+01  0.1900E+02
     -6.397  0.5418E+00  0.1912E+02
     -6.172  0.4948E+00  0.1923E+02
     -5.947  0.1444E+01  0.1955E+02
     -5.723  0.5457E+01  0.2078E+02
     -5.498  0.4306E+01  0.2175E+02
     -5.273  0.4734E+01  0.2281E+02
     -5.049  0.1517E+01  0.2315E+02
     -4.824  0.1853E+01  0.2357E+02
     -4.599  0.1919E+01  0.2400E+02
     -4.375  0.7985E-04  0.2400E+02
     -4.150  0.0000E+00  0.2400E+02
     -3.925  0.0000E+00  0.2400E+02
     -3.701  0.6828E-08  0.2400E+02
     -3.476  0.3250E+00  0.2407E+02
     -3.251  0.6977E+00  0.2423E+02
     -3.027  0.4864E+00  0.2434E+02
     -2.802  0.4610E+00  0.2444E+02
     -2.577  0.4744E+00  0.2455E+02
     -2.353  0.5239E+00  0.2467E+02
     -2.128  0.6473E+00  0.2481E+02
     -1.903  0.1124E+01  0.2506E+02
     -1.679  0.2380E+01  0.2560E+02
     -1.454  0.8654E+00  0.2579E+02
     -1.229  0.9164E+00  0.2600E+02
     -1.005  0.1419E-02  0.2600E+02
     -0.780  0.2605E-03  0.2600E+02
     -0.555  0.1540E+01  0.2635E+02
     -0.331  0.2966E+01  0.2701E+02
     -0.106  0.4646E+01  0.2806E+02
      0.119  0.2954E+01  0.2872E+02
      0.343  0.1328E+01  0.2902E+02
      0.568  0.2633E+01  0.2961E+02
      0.793  0.3327E+01  0.3036E+02
      1.017  0.2053E+01  0.3082E+02
      1.242  0.2063E+01  0.3128E+02
      1.467  0.1218E+01  0.3156E+02
      1.691  0.1169E+01  0.3182E+02
      1.916  0.8093E+00  0.3200E+02
      2.141  0.2910E-05  0.3200E+02
      2.365  0.0000E+00  0.3200E+02
      2.590  0.0000E+00  0.3200E+02
      2.814  0.0000E+00  0.3200E+02
      3.039  0.0000E+00  0.3200E+02
      3.264  0.0000E+00  0.3200E+02
      3.488  0.0000E+00  0.3200E+02
      3.713  0.0000E+00  0.3200E+02
      3.938  0.0000E+00  0.3200E+02
      4.162  0.0000E+00  0.3200E+02
      4.387  0.0000E+00  0.3200E+02
      4.612  0.0000E+00  0.3200E+02
      4.836  0.0000E+00  0.3200E+02
      4.83648029    -62.56288138  301     -5.14947017      1.00000000
    -62.563  0.0000E+00  0.0000E+00  0.0000E+00  0.0000E+00  0.0000E+00  0.0000E+00  0.0000E+00  0.0000E+00  0.0000E+00
    -62.338  0.0000E+00  0.0000E+00  0.0000E+00  0.0000E+00  0.0000E+00  0.0000E+00  0.0000E+00  0.0000E+00  0.0000E+00
    -62.114  0.0000E+00  0.0000E+00  0.0000E+00  0.0000E+00  0.0000E+00  0.0000E+00  0.0000E+00  0.0000E+00  0.0000E+00
    -61.889  0.0000E+00  0.0000E+00  0.0000E+00  0.0000E+00  0.0000E+00  0.0000E+00  0.0000E+00  0.0000E+00  0.0000E+00
    -61.664  0.0000E+00  0.0000E+00  0.0000E+00  0.0000E+00  0.0000E+00  0.0000E+00  0.0000E+00  0.0000E+00  0.0000E+00
    -61.440  0.0000E+00  0.0000E+00  0.0000E+00  0.0000E+00  0.0000E+00  0.0000E+00  0.0000E+00  0.0000E+00  0.0000E+00
    -61.215  0.0000E+00  0.0000E+00  0.0000E+00  0.0000E+00  0.0000E+00  0.0000E+00  0.0000E+00  0.0000E+00  0.0000E+00
    -60.990  0.0000E+00  0.0000E+00  0.0000E+00  0.0000E+00  0.0000E+00  0.0000E+00  0.0000E+00  0.0000E+00  0.0000E+00
    -60.766  0.0000E+00  0.0000E+00  0.0000E+00  0.0000E+00  0.0000E+00  0.0000E+00  0.0000E+00  0.0000E+00  0.0000E+00
    -60.541  0.0000E+00  0.0000E+00  0.0000E+00  0.0000E+00  0.0000E+00  0.0000E+00  0.0000E+00  0.0000E+00  0.0000E+00
    -60.316  0.0000E+00  0.0000E+00  0.0000E+00  0.0000E+00  0.0000E+00  0.0000E+00  0.0000E+00  0.0000E+00  0.0000E+00
    -60.092  0.0000E+00  0.0000E+00  0.0000E+00  0.0000E+00  0.0000E+00  0.0000E+00  0.0000E+00  0.0000E+00  0.0000E+00
    -59.867  0.0000E+00  0.0000E+00  0.0000E+00  0.0000E+00  0.0000E+00  0.0000E+00  0.0000E+00  0.0000E+00  0.0000E+00
    -59.642  0.3631E-13  0.1962E-03  0.1672E-10  0.2314E-03  0.1768E-10  0.1615E-12  0.1768E-13  0.1910E-12  0.1527E-10
    -59.418  0.4136E-08  0.8752E+01  0.2454E+01  0.8762E+01  0.6693E-06  0.7645E-08  0.3075E-08  0.7239E-08  0.6811E-06
    -59.193  0.6600E-08  0.1026E+00  0.6402E+01  0.9268E-01  0.7080E-08  0.1240E-08  0.6123E-08  0.9530E-10  0.7980E-08
    -58.968  0.0000E+00  0.0000E+00  0.0000E+00  0.0000E+00  0.0000E+00  0.0000E+00  0.0000E+00  0.0000E+00  0.0000E+00
    -58.744  0.0000E+00  0.0000E+00  0.0000E+00  0.0000E+00  0.0000E+00  0.0000E+00  0.0000E+00  0.0000E+00  0.0000E+00
    -58.519  0.0000E+00  0.0000E+00  0.0000E+00  0.0000E+00  0.0000E+00  0.0000E+00  0.0000E+00  0.0000E+00  0.0000E+00
    -58.294  0.0000E+00  0.0000E+00  0.0000E+00  0.0000E+00  0.0000E+00  0.0000E+00  0.0000E+00  0.0000E+00  0.0000E+00
    -58.070  0.0000E+00  0.0000E+00  0.0000E+00  0.0000E+00  0.0000E+00  0.0000E+00  0.0000E+00  0.0000E+00  0.0000E+00
    -57.845  0.0000E+00  0.0000E+00  0.0000E+00  0.0000E+00  0.0000E+00  0.0000E+00  0.0000E+00  0.0000E+00  0.0000E+00
    -57.620  0.0000E+00  0.0000E+00  0.0000E+00  0.0000E+00  0.0000E+00  0.0000E+00  0.0000E+00  0.0000E+00  0.0000E+00
    -57.396  0.0000E+00  0.0000E+00  0.0000E+00  0.0000E+00  0.0000E+00  0.0000E+00  0.0000E+00  0.0000E+00  0.0000E+00
    -57.171  0.0000E+00  0.0000E+00  0.0000E+00  0.0000E+00  0.0000E+00  0.0000E+00  0.0000E+00  0.0000E+00  0.0000E+00
    -56.946  0.0000E+00  0.0000E+00  0.0000E+00  0.0000E+00  0.0000E+00  0.0000E+00  0.0000E+00  0.0000E+00  0.0000E+00
    -56.722  0.0000E+00  0.0000E+00  0.0000E+00  0.0000E+00  0.0000E+00  0.0000E+00  0.0000E+00  0.0000E+00  0.0000E+00
    -56.497  0.0000E+00  0.0000E+00  0.0000E+00  0.0000E+00  0.0000E+00  0.0000E+00  0.0000E+00  0.0000E+00  0.0000E+00
    -56.272  0.0000E+00  0.0000E+00  0.0000E+00  0.0000E+00  0.0000E+00  0.0000E+00  0.0000E+00  0.0000E+00  0.0000E+00
    -56.048  0.0000E+00  0.0000E+00  0.0000E+00  0.0000E+00  0.0000E+00  0.0000E+00  0.0000E+00  0.0000E+00  0.0000E+00
    -55.823  0.0000E+00  0.0000E+00  0.0000E+00  0.0000E+00  0.0000E+00  0.0000E+00  0.0000E+00  0.0000E+00  0.0000E+00
    -55.598  0.0000E+00  0.0000E+00  0.0000E+00  0.0000E+00  0.0000E+00  0.0000E+00  0.0000E+00  0.0000E+00  0.0000E+00
    -55.374  0.0000E+00  0.0000E+00  0.0000E+00  0.0000E+00  0.0000E+00  0.0000E+00  0.0000E+00  0.0000E+00  0.0000E+00
    -55.149  0.0000E+00  0.0000E+00  0.0000E+00  0.0000E+00  0.0000E+00  0.0000E+00  0.0000E+00  0.0000E+00  0.0000E+00
    -54.924  0.0000E+00  0.0000E+00  0.0000E+00  0.0000E+00  0.0000E+00  0.0000E+00  0.0000E+00  0.0000E+00  0.0000E+00
    -54.700  0.0000E+00  0.0000E+00  0.0000E+00  0.0000E+00  0.0000E+00  0.0000E+00  0.0000E+00  0.0000E+00  0.0000E+00
    -54.475  0.0000E+00  0.0000E+00  0.0000E+00  0.0000E+00  0.0000E+00  0.0000E+00  0.0000E+00  0.0000E+00  0.0000E+00
    -54.250  0.0000E+00  0.0000E+00  0.0000E+00  0.0000E+00  0.0000E+00  0.0000E+00  0.0000E+00  0.0000E+00  0.0000E+00
    -54.026  0.0000E+00  0.0000E+00  0.0000E+00  0.0000E+00  0.0000E+00  0.0000E+00  0.0000E+00  0.0000E+00  0.0000E+00
    -53.801  0.0000E+00  0.0000E+00  0.0000E+00  0.0000E+00  0.0000E+00  0.0000E+00  0.0000E+00  0.0000E+00  0.0000E+00
    -53.576  0.0000E+00  0.0000E+00  0.0000E+00  0.0000E+00  0.0000E+00  0.0000E+00  0.0000E+00  0.0000E+00  0.0000E+00
    -53.352  0.0000E+00  0.0000E+00  0.0000E+00  0.0000E+00  0.0000E+00  0.0000E+00  0.0000E+00  0.0000E+00  0.0000E+00
    -53.127  0.0000E+00  0.0000E+00  0.0000E+00  0.0000E+00  0.0000E+00  0.0000E+00  0.0000E+00  0.0000E+00  0.0000E+00
    -52.902  0.0000E+00  0.0000E+00  0.0000E+00  0.0000E+00  0.0000E+00  0.0000E+00  0.0000E+00  0.0000E+00  0.0000E+00
    -52.678  0.0000E+00  0.0000E+00  0.0000E+00  0.0000E+00  0.0000E+00  0.0000E+00  0.0000E+00  0.0000E+00  0.0000E+00
    -52.453  0.0000E+00  0.0000E+00  0.0000E+00  0.0000E+00  0.0000E+00  0.0000E+00  0.0000E+00  0.0000E+00  0.0000E+00
    -52.228  0.0000E+00  0.0000E+00  0.0000E+00  0.0000E+00  0.0000E+00  0.0000E+00  0.0000E+00  0.0000E+00  0.0000E+00
    -52.004  0.0000E+00  0.0000E+00  0.0000E+00  0.0000E+00  0.0000E+00  0.0000E+00  0.0000E+00  0.0000E+00  0.0000E+00
    -51.779  0.0000E+00  0.0000E+00  0.0000E+00  0.0000E+00  0.0000E+00  0.0000E+00  0.0000E+00  0.0000E+00  0.0000E+00
    -51.554  0.0000E+00  0.0000E+00  0.0000E+00  0.0000E+00  0.0000E+00  0.0000E+00  0.0000E+00  0.0000E+00  0.0000E+00
    -51.330  0.0000E+00  0.0000E+00  0.0000E+00  0.0000E+00  0.0000E+00  0.0000E+00  0.0000E+00  0.0000E+00  0.0000E+00
    -51.105  0.0000E+00  0.0000E+00  0.0000E+00  0.0000E+00  0.0000E+00  0.0000E+00  0.0000E+00  0.0000E+00  0.0000E+00
    -50.880  0.0000E+00  0.0000E+00  0.0000E+00  0.0000E+00  0.0000E+00  0.0000E+00  0.0000E+00  0.0000E+00  0.0000E+00
    -50.656  0.0000E+00  0.0000E+00  0.0000E+00  0.0000E+00  0.0000E+00  0.0000E+00  0.0000E+00  0.0000E+00  0.0000E+00
    -50.431  0.0000E+00  0.0000E+00  0.0000E+00  0.0000E+00  0.0000E+00  0.0000E+00  0.0000E+00  0.0000E+00  0.0000E+00
    -50.206  0.0000E+00  0.0000E+00  0.0000E+00  0.0000E+00  0.0000E+00  0.0000E+00  0.0000E+00  0.0000E+00  0.0000E+00
    -49.982  0.0000E+00  0.0000E+00  0.0000E+00  0.0000E+00  0.0000E+00  0.0000E+00  0.0000E+00  0.0000E+00  0.0000E+00
    -49.757  0.0000E+00  0.0000E+00  0.0000E+00  0.0000E+00  0.0000E+00  0.0000E+00  0.0000E+00  0.0000E+00  0.0000E+00
    -49.532  0.0000E+00  0.0000E+00  0.0000E+00  0.0000E+00  0.0000E+00  0.0000E+00  0.0000E+00  0.0000E+00  0.0000E+00
    -49.308  0.0000E+00  0.0000E+00  0.0000E+00  0.0000E+00  0.0000E+00  0.0000E+00  0.0000E+00  0.0000E+00  0.0000E+00
    -49.083  0.0000E+00  0.0000E+00  0.0000E+00  0.0000E+00  0.0000E+00  0.0000E+00  0.0000E+00  0.0000E+00  0.0000E+00
    -48.858  0.0000E+00  0.0000E+00  0.0000E+00  0.0000E+00  0.0000E+00  0.0000E+00  0.0000E+00  0.0000E+00  0.0000E+00
    -48.634  0.0000E+00  0.0000E+00  0.0000E+00  0.0000E+00  0.0000E+00  0.0000E+00  0.0000E+00  0.0000E+00  0.0000E+00
    -48.409  0.0000E+00  0.0000E+00  0.0000E+00  0.0000E+00  0.0000E+00  0.0000E+00  0.0000E+00  0.0000E+00  0.0000E+00
    -48.184  0.0000E+00  0.0000E+00  0.0000E+00  0.0000E+00  0.0000E+00  0.0000E+00  0.0000E+00  0.0000E+00  0.0000E+00
    -47.960  0.0000E+00  0.0000E+00  0.0000E+00  0.0000E+00  0.0000E+00  0.0000E+00  0.0000E+00  0.0000E+00  0.0000E+00
    -47.735  0.0000E+00  0.0000E+00  0.0000E+00  0.0000E+00  0.0000E+00  0.0000E+00  0.0000E+00  0.0000E+00  0.0000E+00
    -47.510  0.0000E+00  0.0000E+00  0.0000E+00  0.0000E+00  0.0000E+00  0.0000E+00  0.0000E+00  0.0000E+00  0.0000E+00
    -47.286  0.0000E+00  0.0000E+00  0.0000E+00  0.0000E+00  0.0000E+00  0.0000E+00  0.0000E+00  0.0000E+00  0.0000E+00
    -47.061  0.0000E+00  0.0000E+00  0.0000E+00  0.0000E+00  0.0000E+00  0.0000E+00  0.0000E+00  0.0000E+00  0.0000E+00
    -46.836  0.0000E+00  0.0000E+00  0.0000E+00  0.0000E+00  0.0000E+00  0.0000E+00  0.0000E+00  0.0000E+00  0.0000E+00
    -46.612  0.0000E+00  0.0000E+00  0.0000E+00  0.0000E+00  0.0000E+00  0.0000E+00  0.0000E+00  0.0000E+00  0.0000E+00
    -46.387  0.0000E+00  0.0000E+00  0.0000E+00  0.0000E+00  0.0000E+00  0.0000E+00  0.0000E+00  0.0000E+00  0.0000E+00
    -46.162  0.0000E+00  0.0000E+00  0.0000E+00  0.0000E+00  0.0000E+00  0.0000E+00  0.0000E+00  0.0000E+00  0.0000E+00
    -45.938  0.0000E+00  0.0000E+00  0.0000E+00  0.0000E+00  0.0000E+00  0.0000E+00  0.0000E+00  0.0000E+00  0.0000E+00
    -45.713  0.0000E+00  0.0000E+00  0.0000E+00  0.0000E+00  0.0000E+00  0.0000E+00  0.0000E+00  0.0000E+00  0.0000E+00
    -45.488  0.0000E+00  0.0000E+00  0.0000E+00  0.0000E+00  0.0000E+00  0.0000E+00  0.0000E+00  0.0000E+00  0.0000E+00
    -45.264  0.0000E+00  0.0000E+00  0.0000E+00  0.0000E+00  0.0000E+00  0.0000E+00  0.0000E+00  0.0000E+00  0.0000E+00
    -45.039  0.0000E+00  0.0000E+00  0.0000E+00  0.0000E+00  0.0000E+00  0.0000E+00  0.0000E+00  0.0000E+00  0.0000E+00
    -44.814  0.0000E+00  0.0000E+00  0.0000E+00  0.0000E+00  0.0000E+00  0.0000E+00  0.0000E+00  0.0000E+00  0.0000E+00
    -44.590  0.0000E+00  0.0000E+00  0.0000E+00  0.0000E+00  0.0000E+00  0.0000E+00  0.0000E+00  0.0000E+00  0.0000E+00
    -44.365  0.0000E+00  0.0000E+00  0.0000E+00  0.0000E+00  0.0000E+00  0.0000E+00  0.0000E+00  0.0000E+00  0.0000E+00
    -44.140  0.0000E+00  0.0000E+00  0.0000E+00  0.0000E+00  0.0000E+00  0.0000E+00  0.0000E+00  0.0000E+00  0.0000E+00
    -43.916  0.0000E+00  0.0000E+00  0.0000E+00  0.0000E+00  0.0000E+00  0.0000E+00  0.0000E+00  0.0000E+00  0.0000E+00
    -43.691  0.0000E+00  0.0000E+00  0.0000E+00  0.0000E+00  0.0000E+00  0.0000E+00  0.0000E+00  0.0000E+00  0.0000E+00
    -43.466  0.0000E+00  0.0000E+00  0.0000E+00  0.0000E+00  0.0000E+00  0.0000E+00  0.0000E+00  0.0000E+00  0.0000E+00
    -43.242  0.0000E+00  0.0000E+00  0.0000E+00  0.0000E+00  0.0000E+00  0.0000E+00  0.0000E+00  0.0000E+00  0.0000E+00
    -43.017  0.0000E+00  0.0000E+00  0.0000E+00  0.0000E+00  0.0000E+00  0.0000E+00  0.0000E+00  0.0000E+00  0.0000E+00
    -42.792  0.0000E+00  0.0000E+00  0.0000E+00  0.0000E+00  0.0000E+00  0.0000E+00  0.0000E+00  0.0000E+00  0.0000E+00
    -42.568  0.0000E+00  0.0000E+00  0.0000E+00  0.0000E+00  0.0000E+00  0.0000E+00  0.0000E+00  0.0000E+00  0.0000E+00
    -42.343  0.0000E+00  0.0000E+00  0.0000E+00  0.0000E+00  0.0000E+00  0.0000E+00  0.0000E+00  0.0000E+00  0.0000E+00
    -42.118  0.0000E+00  0.0000E+00  0.0000E+00  0.0000E+00  0.0000E+00  0.0000E+00  0.0000E+00  0.0000E+00  0.0000E+00
    -41.894  0.0000E+00  0.0000E+00  0.0000E+00  0.0000E+00  0.0000E+00  0.0000E+00  0.0000E+00  0.0000E+00  0.0000E+00
    -41.669  0.0000E+00  0.0000E+00  0.0000E+00  0.0000E+00  0.0000E+00  0.0000E+00  0.0000E+00  0.0000E+00  0.0000E+00
    -41.444  0.0000E+00  0.0000E+00  0.0000E+00  0.0000E+00  0.0000E+00  0.0000E+00  0.0000E+00  0.0000E+00  0.0000E+00
    -41.220  0.0000E+00  0.0000E+00  0.0000E+00  0.0000E+00  0.0000E+00  0.0000E+00  0.0000E+00  0.0000E+00  0.0000E+00
    -40.995  0.0000E+00  0.0000E+00  0.0000E+00  0.0000E+00  0.0000E+00  0.0000E+00  0.0000E+00  0.0000E+00  0.0000E+00
    -40.770  0.0000E+00  0.0000E+00  0.0000E+00  0.0000E+00  0.0000E+00  0.0000E+00  0.0000E+00  0.0000E+00  0.0000E+00
    -40.546  0.0000E+00  0.0000E+00  0.0000E+00  0.0000E+00  0.0000E+00  0.0000E+00  0.0000E+00  0.0000E+00  0.0000E+00
    -40.321  0.0000E+00  0.0000E+00  0.0000E+00  0.0000E+00  0.0000E+00  0.0000E+00  0.0000E+00  0.0000E+00  0.0000E+00
    -40.096  0.0000E+00  0.0000E+00  0.0000E+00  0.0000E+00  0.0000E+00  0.0000E+00  0.0000E+00  0.0000E+00  0.0000E+00
    -39.872  0.0000E+00  0.0000E+00  0.0000E+00  0.0000E+00  0.0000E+00  0.0000E+00  0.0000E+00  0.0000E+00  0.0000E+00
    -39.647  0.0000E+00  0.0000E+00  0.0000E+00  0.0000E+00  0.0000E+00  0.0000E+00  0.0000E+00  0.0000E+00  0.0000E+00
    -39.422  0.0000E+00  0.0000E+00  0.0000E+00  0.0000E+00  0.0000E+00  0.0000E+00  0.0000E+00  0.0000E+00  0.0000E+00
    -39.198  0.0000E+00  0.0000E+00  0.0000E+00  0.0000E+00  0.0000E+00  0.0000E+00  0.0000E+00  0.0000E+00  0.0000E+00
    -38.973  0.0000E+00  0.0000E+00  0.0000E+00  0.0000E+00  0.0000E+00  0.0000E+00  0.0000E+00  0.0000E+00  0.0000E+00
    -38.748  0.0000E+00  0.0000E+00  0.0000E+00  0.0000E+00  0.0000E+00  0.0000E+00  0.0000E+00  0.0000E+00  0.0000E+00
    -38.524  0.0000E+00  0.0000E+00  0.0000E+00  0.0000E+00  0.0000E+00  0.0000E+00  0.0000E+00  0.0000E+00  0.0000E+00
    -38.299  0.0000E+00  0.0000E+00  0.0000E+00  0.0000E+00  0.0000E+00  0.0000E+00  0.0000E+00  0.0000E+00  0.0000E+00
    -38.074  0.0000E+00  0.0000E+00  0.0000E+00  0.0000E+00  0.0000E+00  0.0000E+00  0.0000E+00  0.0000E+00  0.0000E+00
    -37.850  0.0000E+00  0.0000E+00  0.0000E+00  0.0000E+00  0.0000E+00  0.0000E+00  0.0000E+00  0.0000E+00  0.0000E+00
    -37.625  0.0000E+00  0.0000E+00  0.0000E+00  0.0000E+00  0.0000E+00  0.0000E+00  0.0000E+00  0.0000E+00  0.0000E+00
    -37.400  0.0000E+00  0.0000E+00  0.0000E+00  0.0000E+00  0.0000E+00  0.0000E+00  0.0000E+00  0.0000E+00  0.0000E+00
    -37.176  0.0000E+00  0.0000E+00  0.0000E+00  0.0000E+00  0.0000E+00  0.0000E+00  0.0000E+00  0.0000E+00  0.0000E+00
    -36.951  0.0000E+00  0.0000E+00  0.0000E+00  0.0000E+00  0.0000E+00  0.0000E+00  0.0000E+00  0.0000E+00  0.0000E+00
    -36.726  0.0000E+00  0.0000E+00  0.0000E+00  0.0000E+00  0.0000E+00  0.0000E+00  0.0000E+00  0.0000E+00  0.0000E+00
    -36.502  0.0000E+00  0.0000E+00  0.0000E+00  0.0000E+00  0.0000E+00  0.0000E+00  0.0000E+00  0.0000E+00  0.0000E+00
    -36.277  0.0000E+00  0.0000E+00  0.0000E+00  0.0000E+00  0.0000E+00  0.0000E+00  0.0000E+00  0.0000E+00  0.0000E+00
    -36.052  0.0000E+00  0.0000E+00  0.0000E+00  0.0000E+00  0.0000E+00  0.0000E+00  0.0000E+00  0.0000E+00  0.0000E+00
    -35.828  0.0000E+00  0.0000E+00  0.0000E+00  0.0000E+00  0.0000E+00  0.0000E+00  0.0000E+00  0.0000E+00  0.0000E+00
    -35.603  0.0000E+00  0.0000E+00  0.0000E+00  0.0000E+00  0.0000E+00  0.0000E+00  0.0000E+00  0.0000E+00  0.0000E+00
    -35.378  0.0000E+00  0.0000E+00  0.0000E+00  0.0000E+00  0.0000E+00  0.0000E+00  0.0000E+00  0.0000E+00  0.0000E+00
    -35.154  0.0000E+00  0.0000E+00  0.0000E+00  0.0000E+00  0.0000E+00  0.0000E+00  0.0000E+00  0.0000E+00  0.0000E+00
    -34.929  0.0000E+00  0.0000E+00  0.0000E+00  0.0000E+00  0.0000E+00  0.0000E+00  0.0000E+00  0.0000E+00  0.0000E+00
    -34.704  0.0000E+00  0.0000E+00  0.0000E+00  0.0000E+00  0.0000E+00  0.0000E+00  0.0000E+00  0.0000E+00  0.0000E+00
    -34.480  0.0000E+00  0.0000E+00  0.0000E+00  0.0000E+00  0.0000E+00  0.0000E+00  0.0000E+00  0.0000E+00  0.0000E+00
    -34.255  0.0000E+00  0.0000E+00  0.0000E+00  0.0000E+00  0.0000E+00  0.0000E+00  0.0000E+00  0.0000E+00  0.0000E+00
    -34.030  0.0000E+00  0.0000E+00  0.0000E+00  0.0000E+00  0.0000E+00  0.0000E+00  0.0000E+00  0.0000E+00  0.0000E+00
    -33.806  0.0000E+00  0.0000E+00  0.0000E+00  0.0000E+00  0.0000E+00  0.0000E+00  0.0000E+00  0.0000E+00  0.0000E+00
    -33.581  0.0000E+00  0.0000E+00  0.0000E+00  0.0000E+00  0.0000E+00  0.0000E+00  0.0000E+00  0.0000E+00  0.0000E+00
    -33.356  0.0000E+00  0.0000E+00  0.0000E+00  0.0000E+00  0.0000E+00  0.0000E+00  0.0000E+00  0.0000E+00  0.0000E+00
    -33.132  0.0000E+00  0.0000E+00  0.0000E+00  0.0000E+00  0.0000E+00  0.0000E+00  0.0000E+00  0.0000E+00  0.0000E+00
    -32.907  0.0000E+00  0.0000E+00  0.0000E+00  0.0000E+00  0.0000E+00  0.0000E+00  0.0000E+00  0.0000E+00  0.0000E+00
    -32.682  0.0000E+00  0.0000E+00  0.0000E+00  0.0000E+00  0.0000E+00  0.0000E+00  0.0000E+00  0.0000E+00  0.0000E+00
    -32.458  0.0000E+00  0.0000E+00  0.0000E+00  0.0000E+00  0.0000E+00  0.0000E+00  0.0000E+00  0.0000E+00  0.0000E+00
    -32.233  0.0000E+00  0.0000E+00  0.0000E+00  0.0000E+00  0.0000E+00  0.0000E+00  0.0000E+00  0.0000E+00  0.0000E+00
    -32.009  0.0000E+00  0.0000E+00  0.0000E+00  0.0000E+00  0.0000E+00  0.0000E+00  0.0000E+00  0.0000E+00  0.0000E+00
    -31.784  0.0000E+00  0.0000E+00  0.0000E+00  0.0000E+00  0.0000E+00  0.0000E+00  0.0000E+00  0.0000E+00  0.0000E+00
    -31.559  0.0000E+00  0.0000E+00  0.0000E+00  0.0000E+00  0.0000E+00  0.0000E+00  0.0000E+00  0.0000E+00  0.0000E+00
    -31.335  0.0000E+00  0.0000E+00  0.0000E+00  0.0000E+00  0.0000E+00  0.0000E+00  0.0000E+00  0.0000E+00  0.0000E+00
    -31.110  0.0000E+00  0.0000E+00  0.0000E+00  0.0000E+00  0.0000E+00  0.0000E+00  0.0000E+00  0.0000E+00  0.0000E+00
    -30.885  0.0000E+00  0.0000E+00  0.0000E+00  0.0000E+00  0.0000E+00  0.0000E+00  0.0000E+00  0.0000E+00  0.0000E+00
    -30.661  0.0000E+00  0.0000E+00  0.0000E+00  0.0000E+00  0.0000E+00  0.0000E+00  0.0000E+00  0.0000E+00  0.0000E+00
    -30.436  0.0000E+00  0.0000E+00  0.0000E+00  0.0000E+00  0.0000E+00  0.0000E+00  0.0000E+00  0.0000E+00  0.0000E+00
    -30.211  0.0000E+00  0.0000E+00  0.0000E+00  0.0000E+00  0.0000E+00  0.0000E+00  0.0000E+00  0.0000E+00  0.0000E+00
    -29.987  0.0000E+00  0.0000E+00  0.0000E+00  0.0000E+00  0.0000E+00  0.0000E+00  0.0000E+00  0.0000E+00  0.0000E+00
    -29.762  0.0000E+00  0.0000E+00  0.0000E+00  0.0000E+00  0.0000E+00  0.0000E+00  0.0000E+00  0.0000E+00  0.0000E+00
    -29.537  0.0000E+00  0.0000E+00  0.0000E+00  0.0000E+00  0.0000E+00  0.0000E+00  0.0000E+00  0.0000E+00  0.0000E+00
    -29.313  0.0000E+00  0.0000E+00  0.0000E+00  0.0000E+00  0.0000E+00  0.0000E+00  0.0000E+00  0.0000E+00  0.0000E+00
    -29.088  0.0000E+00  0.0000E+00  0.0000E+00  0.0000E+00  0.0000E+00  0.0000E+00  0.0000E+00  0.0000E+00  0.0000E+00
    -28.863  0.0000E+00  0.0000E+00  0.0000E+00  0.0000E+00  0.0000E+00  0.0000E+00  0.0000E+00  0.0000E+00  0.0000E+00
    -28.639  0.0000E+00  0.0000E+00  0.0000E+00  0.0000E+00  0.0000E+00  0.0000E+00  0.0000E+00  0.0000E+00  0.0000E+00
    -28.414  0.0000E+00  0.0000E+00  0.0000E+00  0.0000E+00  0.0000E+00  0.0000E+00  0.0000E+00  0.0000E+00  0.0000E+00
    -28.189  0.0000E+00  0.0000E+00  0.0000E+00  0.0000E+00  0.0000E+00  0.0000E+00  0.0000E+00  0.0000E+00  0.0000E+00
    -27.965  0.0000E+00  0.0000E+00  0.0000E+00  0.0000E+00  0.0000E+00  0.0000E+00  0.0000E+00  0.0000E+00  0.0000E+00
    -27.740  0.0000E+00  0.0000E+00  0.0000E+00  0.0000E+00  0.0000E+00  0.0000E+00  0.0000E+00  0.0000E+00  0.0000E+00
    -27.515  0.0000E+00  0.0000E+00  0.0000E+00  0.0000E+00  0.0000E+00  0.0000E+00  0.0000E+00  0.0000E+00  0.0000E+00