    2    2    1    1
  0.7411054E+03  0.5024975E-09  0.5024975E-09  0.6778156E-08  0.5000000E-15
  1.000000000000000E-004
  CAR 
 unknown system                          
     23    600     16
 
  0.0000000E+00  0.0000000E+00  0.0000000E+00  0.1666667E-02
    1      -59.499217   1.000000
    2      -59.497860   1.000000
    3      -59.396692   1.000000
    4      -15.136553   1.000000
    5       -8.959223   1.000000
    6       -8.957715   1.000000
    7       -8.202766   1.000000
    8       -8.200935   1.000000
    9       -8.081671   1.000000
   10       -5.974657   1.000000
   11       -4.730668   0.000000
   12       -4.725425   0.000000
   13       -3.512274   0.000000
   14       -0.145480   0.000000
   15       -0.132773   0.000000
   16        0.345977   0.000000
 
  0.2512563E-02  0.0000000E+00  0.0000000E+00  0.1666667E-02
    1      -59.499223   1.000000
    2      -59.497865   1.000000
    3      -59.396693   1.000000
    4      -15.136541   1.000000
    5       -8.959216   1.000000
    6       -8.957702   1.000000
    7       -8.202774   1.000000
    8       -8.200939   1.000000
    9       -8.081672   1.000000
   10       -5.974620   1.000000
   11       -4.730997   0.000000
   12       -4.725605   0.000000
   13       -3.511840   0.000000
   14       -0.145419   0.000000
   15       -0.132759   0.000000
   16        0.346659   0.000000
 
  0.5025126E-02  0.0000000E+00  0.0000000E+00  0.1666667E-02
    1      -59.499222   1.000000
    2      -59.497864   1.000000
    3      -59.396692   1.000000
    4      -15.136506   1.000000
    5       -8.959191   1.000000
    6       -8.957661   1.000000
    7       -8.202797   1.000000
    8       -8.200950   1.000000
    9       -8.081674   1.000000
   10       -5.974508   1.000000
   11       -4.732034   0.000000
   12       -4.726091   0.000000
   13       -3.510537   0.000000
   14       -0.145234   0.000000
   15       -0.132717   0.000000
   16        0.347078   0.000000
 
  0.7537688E-02  0.0000000E+00  0.0000000E+00  0.1666667E-02
    1      -59.499215   1.000000
    2      -59.497861   1.000000
    3      -59.396684   1.000000
    4      -15.136448   1.000000
    5       -8.959152   1.000000
    6       -8.957593   1.000000
    7       -8.202836   1.000000
    8       -8.200966   1.000000
    9       -8.081678   1.000000
   10       -5.974322   1.000000
   11       -4.733890   0.000000
   12       -4.726768   0.000000
   13       -3.508374   0.000000
   14       -0.145103   0.000000
   15       -0.132650   0.000000
   16        0.691992   0.000000
 
  0.1005025E-01  0.0000000E+00  0.0000000E+00  0.1666667E-02
    1      -59.499208   1.000000
    2      -59.497855   1.000000
    3      -59.396680   1.000000
    4      -15.136366   1.000000
    5       -8.959097   1.000000
    6       -8.957495   1.000000
    7       -8.202892   1.000000
    8       -8.200989   1.000000
    9       -8.081684   1.000000
   10       -5.974062   1.000000
   11       -4.736638   0.000000
   12       -4.727551   0.000000
   13       -3.505358   0.000000
   14       -0.144603   0.000000
   15       -0.132554   0.000000
   16        0.372163   0.000000
 
  0.1256281E-01  0.0000000E+00  0.0000000E+00  0.1666667E-02
    1      -59.499209   1.000000
    2      -59.497856   1.000000
    3      -59.396683   1.000000
    4      -15.136261   1.000000
    5       -8.959030   1.000000
    6       -8.957368   1.000000
    7       -8.202967   1.000000
    8       -8.201019   1.000000
    9       -8.081692   1.000000
   10       -5.973728   1.000000
   11       -4.740289   0.000000
   12       -4.728421   0.000000
   13       -3.501504   0.000000
   14       -0.144183   0.000000
   15       -0.132427   0.000000
   16        0.388080   0.000000
 
  0.1507538E-01  0.0000000E+00  0.0000000E+00  0.1666667E-02
    1      -59.499208   1.000000
    2      -59.497854   1.000000
    3      -59.396679   1.000000
    4      -15.136133   1.000000
    5       -8.958951   1.000000
    6       -8.957210   1.000000
    7       -8.203061   1.000000
    8       -8.201052   1.000000
    9       -8.081701   1.000000
   10       -5.973319   1.000000
   11       -4.744810   0.000000
   12       -4.729387   0.000000
   13       -3.496827   0.000000
   14       -0.143982   0.000000
   15       -0.132251   0.000000
   16        0.769181   0.000000
 
  0.1758794E-01  0.0000000E+00  0.0000000E+00  0.1666667E-02
    1      -59.499207   1.000000
    2      -59.497852   1.000000
    3      -59.396681   1.000000
    4      -15.135981   1.000000
    5       -8.958861   1.000000
    6       -8.957019   1.000000
    7       -8.203174   1.000000
    8       -8.201088   1.000000
    9       -8.081713   1.000000
   10       -5.972836   1.000000
   11       -4.750169   0.000000
   12       -4.730466   0.000000
   13       -3.491347   0.000000
   14       -0.143419   0.000000
   15       -0.132098   0.000000
   16        0.350711   0.000000
 
  0.2010050E-01  0.0000000E+00  0.0000000E+00  0.1666667E-02
    1      -59.499201   1.000000
    2      -59.497848   1.000000
    3      -59.396677   1.000000
    4      -15.135806   1.000000
    5       -8.958761   1.000000
    6       -8.956794   1.000000
    7       -8.203308   1.000000
    8       -8.201127   1.000000
    9       -8.081725   1.000000
   10       -5.972280   1.000000
   11       -4.756329   0.000000
   12       -4.731672   0.000000
   13       -3.485087   0.000000
   14       -0.142820   0.000000
   15       -0.131885   0.000000
   16        0.351293   0.000000
 
  0.2261307E-01  0.0000000E+00  0.0000000E+00  0.1666667E-02
    1      -59.499207   1.000000
    2      -59.497852   1.000000
    3      -59.396676   1.000000
    4      -15.135608   1.000000
    5       -8.958654   1.000000
    6       -8.956536   1.000000
    7       -8.203463   1.000000
    8       -8.201167   1.000000
    9       -8.081740   1.000000
   10       -5.971649   1.000000
   11       -4.763260   0.000000
   12       -4.733012   0.000000
   13       -3.478070   0.000000
   14       -0.142145   0.000000
   15       -0.131638   0.000000
   16        0.350144   0.000000
 
  0.2512563E-01  0.0000000E+00  0.0000000E+00  0.1666667E-02
    1      -59.499207   1.000000
    2      -59.497852   1.000000
    3      -59.396676   1.000000
    4      -15.135387   1.000000
    5       -8.958537   1.000000
    6       -8.956243   1.000000
    7       -8.203642   1.000000
    8       -8.201207   1.000000
    9       -8.081757   1.000000
   10       -5.970945   1.000000
   11       -4.770928   0.000000
   12       -4.734492   0.000000
   13       -3.470324   0.000000
   14       -0.141309   0.000000
   15       -0.131351   0.000000
   16        0.358740   0.000000
 
  0.2763819E-01  0.0000000E+00  0.0000000E+00  0.1666667E-02
    1      -59.499208   1.000000
    2      -59.497853   1.000000
    3      -59.396675   1.000000
    4      -15.135143   1.000000
    5       -8.958412   1.000000
    6       -8.955914   1.000000
    7       -8.203842   1.000000
    8       -8.201247   1.000000
    9       -8.081775   1.000000
   10       -5.970167   1.000000
   11       -4.779302   0.000000
   12       -4.736113   0.000000
   13       -3.461874   0.000000
   14       -0.140499   0.000000
   15       -0.131026   0.000000
   16        0.739796   0.000000
 
  0.3015075E-01  0.0000000E+00  0.0000000E+00  0.1666667E-02
    1      -59.499211   1.000000
    2      -59.497855   1.000000
    3      -59.396673   1.000000
    4      -15.134875   1.000000
    5       -8.958279   1.000000
    6       -8.955551   1.000000
    7       -8.204067   1.000000
    8       -8.201287   1.000000
    9       -8.081795   1.000000
   10       -5.969316   1.000000
   11       -4.788354   0.000000
   12       -4.737878   0.000000
   13       -3.452752   0.000000
   14       -0.139407   0.000000
   15       -0.130639   0.000000
   16        0.387717   0.000000
 
  0.3266332E-01  0.0000000E+00  0.0000000E+00  0.1666667E-02
    1      -59.499206   1.000000
    2      -59.497850   1.000000
    3      -59.396669   1.000000
    4      -15.134585   1.000000
    5       -8.958137   1.000000
    6       -8.955152   1.000000
    7       -8.204313   1.000000
    8       -8.201326   1.000000
    9       -8.081817   1.000000
   10       -5.968391   1.000000
   11       -4.798052   0.000000
   12       -4.739788   0.000000
   13       -3.442985   0.000000
   14       -0.138364   0.000000
   15       -0.130186   0.000000
   16        0.433221   0.000000
 
  0.3517588E-01  0.0000000E+00  0.0000000E+00  0.1666667E-02
    1      -59.499205   1.000000
    2      -59.497849   1.000000
    3      -59.396672   1.000000
    4      -15.134272   1.000000
    5       -8.957988   1.000000
    6       -8.954718   1.000000
    7       -8.204583   1.000000
    8       -8.201364   1.000000
    9       -8.081842   1.000000
   10       -5.967394   1.000000
   11       -4.808365   0.000000
   12       -4.741843   0.000000
   13       -3.432603   0.000000
   14       -0.137779   0.000000
   15       -0.129701   0.000000
   16        0.762869   0.000000
 
  0.3768844E-01  0.0000000E+00  0.0000000E+00  0.1666667E-02
    1      -59.499206   1.000000
    2      -59.497851   1.000000
    3      -59.396669   1.000000
    4      -15.133935   1.000000
    5       -8.957830   1.000000
    6       -8.954250   1.000000
    7       -8.204876   1.000000
    8       -8.201402   1.000000
    9       -8.081867   1.000000
   10       -5.966324   1.000000
   11       -4.819264   0.000000
   12       -4.744041   0.000000
   13       -3.421638   0.000000
   14       -0.136754   0.000000
   15       -0.129163   0.000000
   16        0.755533   0.000000
 
  0.4020101E-01  0.0000000E+00  0.0000000E+00  0.1666667E-02
    1      -59.499203   1.000000
    2      -59.497850   1.000000
    3      -59.396673   1.000000
    4      -15.133577   1.000000
    5       -8.957662   1.000000
    6       -8.953747   1.000000
    7       -8.205193   1.000000
    8       -8.201439   1.000000
    9       -8.081896   1.000000
   10       -5.965181   1.000000
   11       -4.830718   0.000000
   12       -4.746385   0.000000
   13       -3.410119   0.000000
   14       -0.135734   0.000000
   15       -0.128458   0.000000
   16        0.397000   0.000000
 
  0.4271357E-01  0.0000000E+00  0.0000000E+00  0.1666667E-02
    1      -59.499209   1.000000
    2      -59.497855   1.000000
    3      -59.396675   1.000000
    4      -15.133195   1.000000
    5       -8.957486   1.000000
    6       -8.953210   1.000000
    7       -8.205532   1.000000
    8       -8.201476   1.000000
    9       -8.081926   1.000000
   10       -5.963966   1.000000
   11       -4.842698   0.000000
   12       -4.748872   0.000000
   13       -3.398075   0.000000
   14       -0.134840   0.000000
   15       -0.127706   0.000000
   16        0.753286   0.000000
 
  0.4522613E-01  0.0000000E+00  0.0000000E+00  0.1666667E-02
    1      -59.499212   1.000000
    2      -59.497859   1.000000
    3      -59.396675   1.000000
    4      -15.132791   1.000000
    5       -8.957301   1.000000
    6       -8.952640   1.000000
    7       -8.205893   1.000000
    8       -8.201512   1.000000
    9       -8.081959   1.000000
   10       -5.962680   1.000000
   11       -4.855176   0.000000
   12       -4.751503   0.000000
   13       -3.385536   0.000000
   14       -0.133919   0.000000
   15       -0.126768   0.000000
   16        0.752665   0.000000
 
  0.4773869E-01  0.0000000E+00  0.0000000E+00  0.1666667E-02
    1      -59.499211   1.000000
    2      -59.497858   1.000000
    3      -59.396673   1.000000
    4      -15.132364   1.000000
    5       -8.957105   1.000000
    6       -8.952035   1.000000
    7       -8.206276   1.000000
    8       -8.201547   1.000000
    9       -8.081994   1.000000
   10       -5.961321   1.000000
   11       -4.868124   0.000000
   12       -4.754275   0.000000
   13       -3.372530   0.000000
   14       -0.133038   0.000000
   15       -0.125571   0.000000
   16        0.364585   0.000000
 
  0.5025126E-01  0.0000000E+00  0.0000000E+00  0.1666667E-02
    1      -59.499208   1.000000
    2      -59.497856   1.000000
    3      -59.396673   1.000000
    4      -15.131915   1.000000
    5       -8.956899   1.000000
    6       -8.951396   1.000000
    7       -8.206680   1.000000
    8       -8.201583   1.000000
    9       -8.082031   1.000000
   10       -5.959891   1.000000
   11       -4.881515   0.000000
   12       -4.757189   0.000000
   13       -3.359085   0.000000
   14       -0.132270   0.000000
   15       -0.124290   0.000000
   16        0.366272   0.000000
 
  0.5276382E-01  0.0000000E+00  0.0000000E+00  0.1666667E-02
    1      -59.499211   1.000000
    2      -59.497857   1.000000
    3      -59.396678   1.000000
    4      -15.131443   1.000000
    5       -8.956683   1.000000
    6       -8.950724   1.000000
    7       -8.207107   1.000000
    8       -8.201618   1.000000
    9       -8.082070   1.000000
   10       -5.958390   1.000000
   11       -4.895323   0.000000
   12       -4.760243   0.000000
   13       -3.345227   0.000000
   14       -0.131563   0.000000
   15       -0.122651   0.000000
   16        0.368135   0.000000
 
  0.5527638E-01  0.0000000E+00  0.0000000E+00  0.1666667E-02
    1      -59.499200   1.000000
    2      -59.497847   1.000000
    3      -59.396673   1.000000
    4      -15.130949   1.000000
    5       -8.956455   1.000000
    6       -8.950018   1.000000
    7       -8.207553   1.000000
    8       -8.201653   1.000000
    9       -8.082111   1.000000
   10       -5.956818   1.000000
   11       -4.909523   0.000000
   12       -4.763436   0.000000
   13       -3.330981   0.000000
   14       -0.130919   0.000000
   15       -0.121326   0.000000
   16        0.389650   0.000000
 
  0.5778894E-01  0.0000000E+00  0.0000000E+00  0.1666667E-02
    1      -59.499200   1.000000
    2      -59.497847   1.000000
    3      -59.396672   1.000000
    4      -15.130433   1.000000
    5       -8.956218   1.000000
    6       -8.949280   1.000000
    7       -8.208021   1.000000
    8       -8.201689   1.000000
    9       -8.082155   1.000000
   10       -5.955176   1.000000
   11       -4.924091   0.000000
   12       -4.766767   0.000000
   13       -3.316374   0.000000
   14       -0.130321   0.000000
   15       -0.119587   0.000000
   16        0.373489   0.000000
 
  0.6030151E-01  0.0000000E+00  0.0000000E+00  0.1666667E-02
    1      -59.499200   1.000000
    2      -59.497848   1.000000
    3      -59.396674   1.000000
    4      -15.129895   1.000000
    5       -8.955969   1.000000
    6       -8.948510   1.000000
    7       -8.208510   1.000000
    8       -8.201725   1.000000
    9       -8.082201   1.000000
   10       -5.953463   1.000000
   11       -4.939005   0.000000
   12       -4.770235   0.000000
   13       -3.301428   0.000000
   14       -0.129761   0.000000
   15       -0.117751   0.000000
   16        0.718915   0.000000
 
  0.6281407E-01  0.0000000E+00  0.0000000E+00  0.1666667E-02
    1      -59.499200   1.000000
    2      -59.497848   1.000000
    3      -59.396669   1.000000
    4      -15.129335   1.000000
    5       -8.955709   1.000000
    6       -8.947707   1.000000
    7       -8.209018   1.000000
    8       -8.201762   1.000000
    9       -8.082249   1.000000
   10       -5.951681   1.000000
   11       -4.954243   0.000000
   12       -4.773839   0.000000
   13       -3.286167   0.000000
   14       -0.129222   0.000000
   15       -0.115653   0.000000
   16        0.714521   0.000000
 
  0.6532663E-01  0.0000000E+00  0.0000000E+00  0.1666667E-02
    1      -59.499202   1.000000
    2      -59.497850   1.000000
    3      -59.396672   1.000000
    4      -15.128753   1.000000
    5       -8.955438   1.000000
    6       -8.946872   1.000000
    7       -8.209548   1.000000
    8       -8.201799   1.000000
    9       -8.082301   1.000000
   10       -5.949830   1.000000
   11       -4.969785   0.000000
   12       -4.777576   0.000000
   13       -3.270611   0.000000
   14       -0.128729   0.000000
   15       -0.113791   0.000000
   16        0.697121   0.000000
 
  0.6783920E-01  0.0000000E+00  0.0000000E+00  0.1666667E-02
    1      -59.499206   1.000000
    2      -59.497852   1.000000
    3      -59.396673   1.000000
    4      -15.128150   1.000000
    5       -8.955155   1.000000
    6       -8.946005   1.000000
    7       -8.210097   1.000000
    8       -8.201836   1.000000
    9       -8.082356   1.000000
   10       -5.947910   1.000000
   11       -4.985610   0.000002
   12       -4.781446   0.000000
   13       -3.254783   0.000000
   14       -0.128026   0.000000
   15       -0.092878   0.000000
   16        0.767822   0.000000
 
  0.7035176E-01  0.0000000E+00  0.0000000E+00  0.1666667E-02
    1      -59.499206   1.000000
    2      -59.497850   1.000000
    3      -59.396670   1.000000
    4      -15.127525   1.000000
    5       -8.954860   1.000000
    6       -8.945105   1.000000
    7       -8.210664   1.000000
    8       -8.201874   1.000000
    9       -8.082413   1.000000
   10       -5.945921   1.000000
   11       -5.001701   0.000015
   12       -4.785448   0.000000
   13       -3.238701   0.000000
   14       -0.127786   0.000000
   15       -0.109046   0.000000
   16        0.724880   0.000000
 
  0.7286432E-01  0.0000000E+00  0.0000000E+00  0.1666667E-02
    1      -59.499202   1.000000
    2      -59.497849   1.000000
    3      -59.396670   1.000000
    4      -15.126878   1.000000
    5       -8.954552   1.000000
    6       -8.944174   1.000000
    7       -8.211251   1.000000
    8       -8.201912   1.000000
    9       -8.082472   1.000000
   10       -5.943865   1.000000
   11       -5.018039   0.000101
   12       -4.789578   0.000000
   13       -3.222384   0.000000
   14       -0.127322   0.000000
   15       -0.106975   0.000000
   16        0.719311   0.000000
 
  0.7537688E-01  0.0000000E+00  0.0000000E+00  0.1666667E-02
    1      -59.499200   1.000000
    2      -59.497848   1.000000
    3      -59.396670   1.000000
    4      -15.126211   1.000000
    5       -8.954232   1.000000
    6       -8.943210   1.000000
    7       -8.211856   1.000000
    8       -8.201952   1.000000
    9       -8.082535   1.000000
   10       -5.941741   1.000000
   11       -5.034608   0.000579
   12       -4.793837   0.000000
   13       -3.205850   0.000000
   14       -0.126892   0.000000
   15       -0.104584   0.000000
   16        0.712518   0.000000
 
  0.7788945E-01  0.0000000E+00  0.0000000E+00  0.1666667E-02
    1      -59.499198   1.000000
    2      -59.497847   1.000000
    3      -59.396670   1.000000
    4      -15.125522   1.000000
    5       -8.953900   1.000000
    6       -8.942215   1.000000
    7       -8.212481   1.000000
    8       -8.201992   1.000000
    9       -8.082601   1.000000
   10       -5.939549   1.000000
   11       -5.051393   0.002768
   12       -4.798223   0.000000
   13       -3.189117   0.000000
   14       -0.126473   0.000000
   15       -0.102080   0.000000
   16        0.699845   0.000000
 
  0.8040201E-01  0.0000000E+00  0.0000000E+00  0.1666667E-02
    1      -59.499195   1.000000
    2      -59.497846   1.000000
    3      -59.396670   1.000000
    4      -15.124812   1.000000
    5       -8.953554   1.000000
    6       -8.941189   1.000000
    7       -8.213123   1.000000
    8       -8.202033   1.000000
    9       -8.082670   1.000000
   10       -5.937291   1.000000
   11       -5.068379   0.010906
   12       -4.802733   0.000000
   13       -3.172201   0.000000
   14       -0.126065   0.000000
   15       -0.099491   0.000000
   16        0.705717   0.000000
 
  0.8291457E-01  0.0000000E+00  0.0000000E+00  0.1666667E-02
    1      -59.499188   1.000000
    2      -59.497837   1.000000
    3      -59.396664   1.000000
    4      -15.124081   1.000000
    5       -8.953195   1.000000
    6       -8.940131   1.000000
    7       -8.213783   1.000000
    8       -8.202073   1.000000
    9       -8.082741   1.000000
   10       -5.934967   1.000000
   11       -5.085551   0.035311
   12       -4.807366   0.000000
   13       -3.155116   0.000000
   14       -0.125669   0.000000
   15       -0.096826   0.000000
   16        0.648235   0.000000
 
  0.8542714E-01  0.0000000E+00  0.0000000E+00  0.1666667E-02
    1      -59.499190   1.000000
    2      -59.497840   1.000000
    3      -59.396667   1.000000
    4      -15.123330   1.000000
    5       -8.952823   1.000000
    6       -8.939043   1.000000
    7       -8.214461   1.000000
    8       -8.202116   1.000000
    9       -8.082817   1.000000
   10       -5.932578   1.000000
   11       -5.102898   0.093874
   12       -4.812122   0.000000
   13       -3.137879   0.000000
   14       -0.125289   0.000000
   15       -0.094058   0.000000
   16        0.673061   0.000000
 
  0.8793970E-01  0.0000000E+00  0.0000000E+00  0.1666667E-02
    1      -59.499188   1.000000
    2      -59.497839   1.000000
    3      -59.396667   1.000000
    4      -15.122558   1.000000
    5       -8.952437   1.000000
    6       -8.937924   1.000000
    7       -8.215157   1.000000
    8       -8.202160   1.000000
    9       -8.082895   1.000000
   10       -5.930123   1.000000
   11       -5.120405   0.205514
   12       -4.816997   0.000000
   13       -3.120502   0.000000
   14       -0.124925   0.000000
   15       -0.091234   0.000000
   16        0.696134   0.000000
 
  0.9045226E-01  0.0000000E+00  0.0000000E+00  0.1666667E-02
    1      -59.499187   1.000000
    2      -59.497840   1.000000
    3      -59.396666   1.000000
    4      -15.121766   1.000000
    5       -8.952037   1.000000
    6       -8.936775   1.000000
    7       -8.215870   1.000000
    8       -8.202204   1.000000
    9       -8.082978   1.000000
   10       -5.927604   1.000000
   11       -5.138062   0.373470
   12       -4.821990   0.000000
   13       -3.103000   0.000000
   14       -0.124578   0.000000
   15       -0.088398   0.000000
   16        0.547597   0.000000
 
  0.9296482E-01  0.0000000E+00  0.0000000E+00  0.1666667E-02
    1      -59.499187   1.000000
    2      -59.497841   1.000000
    3      -59.396666   1.000000
    4      -15.120954   1.000000
    5       -8.951624   1.000000
    6       -8.935595   1.000000
    7       -8.216600   1.000000
    8       -8.202249   1.000000
    9       -8.083063   1.000000
   10       -5.925021   1.000000
   11       -5.155857   0.571680
   12       -4.827099   0.000000
   13       -3.085385   0.000000
   14       -0.124247   0.000000
   15       -0.085348   0.000000
   16        0.644459   0.000000
 
  0.9547739E-01  0.0000000E+00  0.0000000E+00  0.1666667E-02
    1      -59.499179   1.000000
    2      -59.497833   1.000000
    3      -59.396665   1.000000
    4      -15.120122   1.000000
    5       -8.951195   1.000000
    6       -8.934383   1.000000
    7       -8.217347   1.000000
    8       -8.202294   1.000000
    9       -8.083152   1.000000
   10       -5.922374   1.000000
   11       -5.173780   0.754146
   12       -4.832322   0.000000
   13       -3.067669   0.000000
   14       -0.123935   0.000000
   15       -0.082205   0.000000
   16        0.648405   0.000000
 
  0.9798995E-01  0.0000000E+00  0.0000000E+00  0.1666667E-02
    1      -59.499186   1.000000
    2      -59.497835   1.000000
    3      -59.396664   1.000000
    4      -15.119270   1.000000
    5       -8.950754   1.000000
    6       -8.933142   1.000000
    7       -8.218110   1.000000
    8       -8.202341   1.000000
    9       -8.083246   1.000000
   10       -5.919665   1.000000
   11       -5.191822   0.884521
   12       -4.837658   0.000000
   13       -3.049864   0.000000
   14       -0.123647   0.000000
   15       -0.079212   0.000000
   16        0.646465   0.000000
 
  0.1005025E+00  0.0000000E+00  0.0000000E+00  0.1666667E-02
    1      -59.499192   1.000000
    2      -59.497837   1.000000
    3      -59.396663   1.000000
    4      -15.118399   1.000000
    5       -8.950298   1.000000
    6       -8.931872   1.000000
    7       -8.218889   1.000000
    8       -8.202388   1.000000
    9       -8.083344   1.000000
   10       -5.916893   1.000000
   11       -5.209973   0.956485
   12       -4.843105   0.000000
   13       -3.031982   0.000000
   14       -0.123226   0.000000
   15        0.580029   0.000000
   16        0.933877   0.000000
 
  0.1030151E+00  0.0000000E+00  0.0000000E+00  0.1666667E-02
    1      -59.499188   1.000000
    2      -59.497836   1.000000
    3      -59.396662   1.000000
    4      -15.117507   1.000000
    5       -8.949825   1.000000
    6       -8.930571   1.000000
    7       -8.219683   1.000000
    8       -8.202436   1.000000
    9       -8.083445   1.000000
   10       -5.914060   1.000000
   11       -5.228223   0.987042
   12       -4.848660   0.000000
   13       -3.014033   0.000000
   14       -0.123171   0.000000
   15       -0.068924   0.000000
   16        0.663977   0.000000
 
  0.1055276E+00  0.0000000E+00  0.0000000E+00  0.1666667E-02
    1      -59.499191   1.000000
    2      -59.497838   1.000000
    3      -59.396668   1.000000
    4      -15.116597   1.000000
    5       -8.949337   1.000000
    6       -8.929241   1.000000
    7       -8.220495   1.000000
    8       -8.202486   1.000000
    9       -8.083551   1.000000
   10       -5.911166   1.000000
   11       -5.246565   0.996986
   12       -4.854322   0.000000
   13       -2.996028   0.000000
   14       -0.122970   0.000000
   15       -0.062353   0.000000
   16        0.651443   0.000000
 
  0.1080402E+00  0.0000000E+00  0.0000000E+00  0.1666667E-02
    1      -59.499196   1.000000
    2      -59.497842   1.000000
    3      -59.396668   1.000000
    4      -15.115668   1.000000
    5       -8.948834   1.000000
    6       -8.927882   1.000000
    7       -8.221321   1.000000
    8       -8.202537   1.000000
    9       -8.083661   1.000000
   10       -5.908211   1.000000
   11       -5.264991   0.999457
   12       -4.860089   0.000000
   13       -2.977976   0.000000
   14       -0.122788   0.000000
   15       -0.066489   0.000000
   16        0.646060   0.000000
 
  0.1105528E+00  0.0000000E+00  0.0000000E+00  0.1666667E-02
    1      -59.499198   1.000000
    2      -59.497843   1.000000
    3      -59.396672   1.000000
    4      -15.114720   1.000000
    5       -8.948315   1.000000
    6       -8.926494   1.000000
    7       -8.222162   1.000000
    8       -8.202588   1.000000
    9       -8.083775   1.000000
   10       -5.905197   1.000000
   11       -5.283492   0.999925
   12       -4.865958   0.000000
   13       -2.959887   0.000000
   14       -0.122658   0.000000
   15       -0.063158   0.000000
   16        0.636182   0.000000
 
  0.1130653E+00  0.0000000E+00  0.0000000E+00  0.1666667E-02
    1      -59.499200   1.000000
    2      -59.497844   1.000000
    3      -59.396672   1.000000
    4      -15.113754   1.000000
    5       -8.947780   1.000000
    6       -8.925077   1.000000
    7       -8.223017   1.000000
    8       -8.202639   1.000000
    9       -8.083894   1.000000
   10       -5.902123   1.000000
   11       -5.302063   0.999992
   12       -4.871929   0.000000
   13       -2.941771   0.000000
   14       -0.122559   0.000000
   15       -0.059823   0.000000
   16        0.612140   0.000000
 
  0.1155779E+00  0.0000000E+00  0.0000000E+00  0.1666667E-02
    1      -59.499204   1.000000
    2      -59.497849   1.000000
    3      -59.396673   1.000000
    4      -15.112769   1.000000
    5       -8.947228   1.000000
    6       -8.923632   1.000000
    7       -8.223887   1.000000
    8       -8.202692   1.000000
    9       -8.084018   1.000000
   10       -5.898991   1.000000
   11       -5.320697   0.999999
   12       -4.877998   0.000000
   13       -2.923636   0.000000
   14       -0.122495   0.000000
   15       -0.055912   0.000000
   16        0.471650   0.000000
 
  0.1180905E+00  0.0000000E+00  0.0000000E+00  0.1666667E-02
    1      -59.499205   1.000000
    2      -59.497849   1.000000
    3      -59.396673   1.000000
    4      -15.111766   1.000000
    5       -8.946659   1.000000
    6       -8.922157   1.000000
    7       -8.224770   1.000000
    8       -8.202746   1.000000
    9       -8.084146   1.000000
   10       -5.895801   1.000000
   11       -5.339386   1.000000
   12       -4.884164   0.000000
   13       -2.905491   0.000000
   14       -0.122473   0.000000
   15       -0.052943   0.000000
   16        0.588551   0.000000
 
  0.1206030E+00  0.0000000E+00  0.0000000E+00  0.1666667E-02
    1      -59.499203   1.000000
    2      -59.497846   1.000000
    3      -59.396674   1.000000
    4      -15.110745   1.000000
    5       -8.946073   1.000000
    6       -8.920655   1.000000
    7       -8.225668   1.000000
    8       -8.202800   1.000000
    9       -8.084279   1.000000
   10       -5.892554   1.000000
   11       -5.358125   1.000000
   12       -4.890425   0.000000
   13       -2.887344   0.000000
   14       -0.122495   0.000000
   15       -0.049423   0.000000
   16        0.605137   0.000000
 
  0.1231156E+00  0.0000000E+00  0.0000000E+00  0.1666667E-02
    1      -59.499205   1.000000
    2      -59.497847   1.000000
    3      -59.396669   1.000000
    4      -15.109706   1.000000
    5       -8.945470   1.000000
    6       -8.919124   1.000000
    7       -8.226578   1.000000
    8       -8.202855   1.000000
    9       -8.084417   1.000000
   10       -5.889251   1.000000
   11       -5.376909   1.000000
   12       -4.896778   0.000000
   13       -2.869204   0.000000
   14       -0.122561   0.000000
   15       -0.045851   0.000000
   16        0.592847   0.000000
 
  0.1256281E+00  0.0000000E+00  0.0000000E+00  0.1666667E-02
    1      -59.499203   1.000000
    2      -59.497846   1.000000
    3      -59.396669   1.000000
    4      -15.108650   1.000000
    5       -8.944848   1.000000