PROCAR lm decomposed
# of k-points:  600         # of bands:  16         # of ions:   2

 k-point    1 :    0.00000000 0.00000000 0.00000000     weight = 0.00166667

band   1 # energy  -59.49921676 # occ.  2.00000000
 
ion      s     py     pz     px    dxy    dyz    dz2    dxz    dx2    tot
  1  0.000  0.004  0.000  0.991  0.000  0.000  0.000  0.000  0.000  0.995
  2  0.000  0.000  0.000  0.000  0.000  0.000  0.000  0.000  0.000  0.000
tot  0.000  0.004  0.000  0.991  0.000  0.000  0.000  0.000  0.000  0.995
 
band   2 # energy  -59.49785990 # occ.  2.00000000
 
ion      s     py     pz     px    dxy    dyz    dz2    dxz    dx2    tot
  1  0.000  0.991  0.000  0.004  0.000  0.000  0.000  0.000  0.000  0.995
  2  0.000  0.000  0.000  0.000  0.000  0.000  0.000  0.000  0.000  0.000
tot  0.000  0.991  0.000  0.004  0.000  0.000  0.000  0.000  0.000  0.995
 
band   3 # energy  -59.39669196 # occ.  2.00000000
 
ion      s     py     pz     px    dxy    dyz    dz2    dxz    dx2    tot
  1  0.000  0.000  0.995  0.000  0.000  0.000  0.000  0.000  0.000  0.995
  2  0.000  0.000  0.000  0.000  0.000  0.000  0.000  0.000  0.000  0.000
tot  0.000  0.000  0.995  0.000  0.000  0.000  0.000  0.000  0.000  0.995
 
band   4 # energy  -15.13655300 # occ.  2.00000000
 
ion      s     py     pz     px    dxy    dyz    dz2    dxz    dx2    tot
  1  0.015  0.000  0.000  0.000  0.000  0.000  0.008  0.000  0.000  0.023
  2  0.648  0.000  0.000  0.000  0.000  0.000  0.000  0.000  0.000  0.648
tot  0.663  0.000  0.000  0.000  0.000  0.000  0.008  0.000  0.000  0.671
 
band   5 # energy   -8.95922316 # occ.  2.00000000
 
ion      s     py     pz     px    dxy    dyz    dz2    dxz    dx2    tot
  1  0.000  0.000  0.000  0.001  0.708  0.000  0.000  0.000  0.003  0.712
  2  0.000  0.000  0.000  0.084  0.000  0.000  0.000  0.000  0.000  0.085
tot  0.000  0.000  0.000  0.085  0.708  0.000  0.000  0.000  0.003  0.796
 
band   6 # energy   -8.95771472 # occ.  2.00000000
 
ion      s     py     pz     px    dxy    dyz    dz2    dxz    dx2    tot
  1  0.000  0.001  0.000  0.000  0.003  0.000  0.000  0.000  0.708  0.712
  2  0.000  0.084  0.000  0.000  0.000  0.000  0.000  0.000  0.000  0.084
tot  0.000  0.085  0.000  0.000  0.003  0.000  0.000  0.000  0.708  0.796
 
band   7 # energy   -8.20276590 # occ.  2.00000000
 
ion      s     py     pz     px    dxy    dyz    dz2    dxz    dx2    tot
  1  0.000  0.000  0.000  0.000  0.000  0.003  0.000  0.889  0.000  0.892
  2  0.000  0.000  0.000  0.000  0.000  0.000  0.000  0.001  0.000  0.001
tot  0.000  0.000  0.000  0.000  0.000  0.003  0.000  0.890  0.000  0.893
 
band   8 # energy   -8.20093497 # occ.  2.00000000
 
ion      s     py     pz     px    dxy    dyz    dz2    dxz    dx2    tot
  1  0.000  0.000  0.000  0.000  0.000  0.889  0.000  0.003  0.000  0.892
  2  0.000  0.000  0.000  0.000  0.000  0.001  0.000  0.000  0.000  0.001
tot  0.000  0.000  0.000  0.000  0.000  0.890  0.000  0.003  0.000  0.893
 
band   9 # energy   -8.08167058 # occ.  2.00000000
 
ion      s     py     pz     px    dxy    dyz    dz2    dxz    dx2    tot
  1  0.001  0.000  0.000  0.000  0.000  0.000  0.885  0.000  0.000  0.886
  2  0.007  0.000  0.000  0.000  0.000  0.000  0.001  0.000  0.000  0.008
tot  0.008  0.000  0.000  0.000  0.000  0.000  0.886  0.000  0.000  0.894
 
band  10 # energy   -5.97465709 # occ.  2.00000000
 
ion      s     py     pz     px    dxy    dyz    dz2    dxz    dx2    tot
  1  0.000  0.000  0.006  0.000  0.000  0.000  0.000  0.000  0.000  0.006
  2  0.000  0.000  0.382  0.000  0.000  0.000  0.000  0.000  0.000  0.382
tot  0.000  0.000  0.388  0.000  0.000  0.000  0.000  0.000  0.000  0.388
 
band  11 # energy   -4.73066761 # occ.  0.00000000
 
ion      s     py     pz     px    dxy    dyz    dz2    dxz    dx2    tot
  1  0.000  0.000  0.000  0.014  0.203  0.000  0.000  0.000  0.001  0.218
  2  0.000  0.001  0.000  0.388  0.001  0.000  0.000  0.000  0.000  0.390
tot  0.000  0.001  0.000  0.402  0.204  0.000  0.000  0.000  0.001  0.608
 
band  12 # energy   -4.72542515 # occ.  0.00000000
 
ion      s     py     pz     px    dxy    dyz    dz2    dxz    dx2    tot
  1  0.000  0.014  0.000  0.000  0.001  0.000  0.000  0.000  0.203  0.218
  2  0.000  0.389  0.000  0.001  0.000  0.000  0.000  0.000  0.001  0.391
tot  0.000  0.402  0.000  0.001  0.001  0.000  0.000  0.000  0.204  0.608
 
band  13 # energy   -3.51227420 # occ.  0.00000000
 
ion      s     py     pz     px    dxy    dyz    dz2    dxz    dx2    tot
  1  0.247  0.000  0.000  0.000  0.000  0.000  0.003  0.000  0.000  0.250
  2  0.115  0.000  0.000  0.000  0.000  0.000  0.007  0.000  0.000  0.123
tot  0.363  0.000  0.000  0.000  0.000  0.000  0.010  0.000  0.000  0.373
 
band  14 # energy   -0.14548013 # occ.  0.00000000
 
ion      s     py     pz     px    dxy    dyz    dz2    dxz    dx2    tot
  1  0.025  0.000  0.001  0.000  0.000  0.000  0.005  0.000  0.000  0.030
  2  0.000  0.000  0.007  0.000  0.000  0.000  0.011  0.000  0.000  0.018
tot  0.025  0.000  0.008  0.000  0.000  0.000  0.015  0.000  0.000  0.048
 
band  15 # energy   -0.13277339 # occ.  0.00000000
 
ion      s     py     pz     px    dxy    dyz    dz2    dxz    dx2    tot
  1  0.002  0.000  0.007  0.000  0.000  0.000  0.000  0.000  0.000  0.009
  2  0.000  0.000  0.072  0.000  0.000  0.000  0.001  0.000  0.000  0.073
tot  0.002  0.000  0.079  0.000  0.000  0.000  0.001  0.000  0.000  0.083
 
band  16 # energy    0.34597700 # occ.  0.00000000
 
ion      s     py     pz     px    dxy    dyz    dz2    dxz    dx2    tot
  1  0.000  0.000  0.000  0.000  0.000  0.000  0.000  0.000  0.000  0.000
  2  0.000  0.000  0.000  0.000  0.000  0.000  0.000  0.000  0.000  0.000
tot  0.000  0.000  0.000  0.000  0.000  0.000  0.000  0.000  0.000  0.000
 

 k-point    2 :    0.00251256 0.00000000 0.00000000     weight = 0.00166667

band   1 # energy  -59.49922311 # occ.  2.00000000
 
ion      s     py     pz     px    dxy    dyz    dz2    dxz    dx2    tot
  1  0.000  0.003  0.000  0.991  0.000  0.000  0.000  0.000  0.000  0.995
  2  0.000  0.000  0.000  0.000  0.000  0.000  0.000  0.000  0.000  0.000
tot  0.000  0.003  0.000  0.991  0.000  0.000  0.000  0.000  0.000  0.995
 
band   2 # energy  -59.49786497 # occ.  2.00000000
 
ion      s     py     pz     px    dxy    dyz    dz2    dxz    dx2    tot
  1  0.000  0.991  0.000  0.003  0.000  0.000  0.000  0.000  0.000  0.995
  2  0.000  0.000  0.000  0.000  0.000  0.000  0.000  0.000  0.000  0.000
tot  0.000  0.991  0.000  0.003  0.000  0.000  0.000  0.000  0.000  0.995
 
band   3 # energy  -59.39669255 # occ.  2.00000000
 
ion      s     py     pz     px    dxy    dyz    dz2    dxz    dx2    tot
  1  0.000  0.000  0.995  0.000  0.000  0.000  0.000  0.000  0.000  0.995
  2  0.000  0.000  0.000  0.000  0.000  0.000  0.000  0.000  0.000  0.000
tot  0.000  0.000  0.995  0.000  0.000  0.000  0.000  0.000  0.000  0.995
 
band   4 # energy  -15.13654142 # occ.  2.00000000
 
ion      s     py     pz     px    dxy    dyz    dz2    dxz    dx2    tot
  1  0.015  0.000  0.000  0.000  0.000  0.000  0.008  0.000  0.000  0.023
  2  0.648  0.000  0.000  0.000  0.000  0.000  0.000  0.000  0.000  0.648
tot  0.663  0.000  0.000  0.000  0.000  0.000  0.008  0.000  0.000  0.671
 
band   5 # energy   -8.95921563 # occ.  2.00000000
 
ion      s     py     pz     px    dxy    dyz    dz2    dxz    dx2    tot
  1  0.000  0.000  0.000  0.001  0.708  0.000  0.000  0.000  0.003  0.712
  2  0.000  0.000  0.000  0.084  0.000  0.000  0.000  0.000  0.000  0.085
tot  0.000  0.000  0.000  0.085  0.708  0.000  0.000  0.000  0.003  0.796
 
band   6 # energy   -8.95770199 # occ.  2.00000000
 
ion      s     py     pz     px    dxy    dyz    dz2    dxz    dx2    tot
  1  0.000  0.001  0.000  0.000  0.003  0.000  0.000  0.000  0.708  0.712
  2  0.000  0.084  0.000  0.000  0.000  0.000  0.000  0.000  0.000  0.084
tot  0.000  0.085  0.000  0.000  0.003  0.000  0.000  0.000  0.708  0.796
 
band   7 # energy   -8.20277398 # occ.  2.00000000
 
ion      s     py     pz     px    dxy    dyz    dz2    dxz    dx2    tot
  1  0.000  0.000  0.000  0.000  0.000  0.003  0.000  0.889  0.000  0.892
  2  0.000  0.000  0.000  0.000  0.000  0.000  0.000  0.001  0.000  0.001
tot  0.000  0.000  0.000  0.000  0.000  0.003  0.000  0.890  0.000  0.893
 
band   8 # energy   -8.20093881 # occ.  2.00000000
 
ion      s     py     pz     px    dxy    dyz    dz2    dxz    dx2    tot
  1  0.000  0.000  0.000  0.000  0.000  0.889  0.000  0.003  0.000  0.892
  2  0.000  0.000  0.000  0.000  0.000  0.001  0.000  0.000  0.000  0.001
tot  0.000  0.000  0.000  0.000  0.000  0.890  0.000  0.003  0.000  0.893
 
band   9 # energy   -8.08167192 # occ.  2.00000000
 
ion      s     py     pz     px    dxy    dyz    dz2    dxz    dx2    tot
  1  0.001  0.000  0.000  0.000  0.000  0.000  0.885  0.000  0.000  0.886
  2  0.007  0.000  0.000  0.000  0.000  0.000  0.001  0.000  0.000  0.008
tot  0.008  0.000  0.000  0.000  0.000  0.000  0.886  0.000  0.000  0.894
 
band  10 # energy   -5.97461990 # occ.  2.00000000
 
ion      s     py     pz     px    dxy    dyz    dz2    dxz    dx2    tot
  1  0.000  0.000  0.006  0.000  0.000  0.000  0.000  0.000  0.000  0.006
  2  0.000  0.000  0.382  0.000  0.000  0.000  0.000  0.000  0.000  0.382
tot  0.000  0.000  0.388  0.000  0.000  0.000  0.000  0.000  0.000  0.388
 
band  11 # energy   -4.73099670 # occ.  0.00000000
 
ion      s     py     pz     px    dxy    dyz    dz2    dxz    dx2    tot
  1  0.000  0.000  0.000  0.014  0.204  0.000  0.000  0.000  0.000  0.218
  2  0.000  0.000  0.000  0.389  0.001  0.000  0.000  0.000  0.000  0.390
tot  0.000  0.000  0.000  0.403  0.204  0.000  0.000  0.000  0.000  0.608
 
band  12 # energy   -4.72560522 # occ.  0.00000000
 
ion      s     py     pz     px    dxy    dyz    dz2    dxz    dx2    tot
  1  0.000  0.014  0.000  0.000  0.000  0.000  0.000  0.000  0.204  0.218
  2  0.000  0.390  0.000  0.000  0.000  0.000  0.000  0.000  0.001  0.391
tot  0.000  0.403  0.000  0.000  0.000  0.000  0.000  0.000  0.204  0.608
 
band  13 # energy   -3.51183954 # occ.  0.00000000
 
ion      s     py     pz     px    dxy    dyz    dz2    dxz    dx2    tot
  1  0.247  0.000  0.000  0.000  0.000  0.000  0.003  0.000  0.000  0.250
  2  0.115  0.000  0.000  0.000  0.000  0.000  0.007  0.000  0.000  0.123
tot  0.363  0.000  0.000  0.000  0.000  0.000  0.010  0.000  0.000  0.373
 
band  14 # energy   -0.14541904 # occ.  0.00000000
 
ion      s     py     pz     px    dxy    dyz    dz2    dxz    dx2    tot
  1  0.025  0.000  0.001  0.000  0.000  0.000  0.005  0.000  0.000  0.030
  2  0.000  0.000  0.007  0.000  0.000  0.000  0.011  0.000  0.000  0.018
tot  0.025  0.000  0.008  0.000  0.000  0.000  0.015  0.000  0.000  0.048
 
band  15 # energy   -0.13275930 # occ.  0.00000000
 
ion      s     py     pz     px    dxy    dyz    dz2    dxz    dx2    tot
  1  0.002  0.000  0.007  0.000  0.000  0.000  0.000  0.000  0.000  0.009
  2  0.000  0.000  0.072  0.000  0.000  0.000  0.001  0.000  0.000  0.073
tot  0.002  0.000  0.079  0.000  0.000  0.000  0.001  0.000  0.000  0.083
 
band  16 # energy    0.34665925 # occ.  0.00000000
 
ion      s     py     pz     px    dxy    dyz    dz2    dxz    dx2    tot
  1  0.000  0.000  0.000  0.000  0.000  0.000  0.000  0.000  0.000  0.000
  2  0.000  0.000  0.000  0.000  0.000  0.000  0.000  0.000  0.000  0.000
tot  0.000  0.000  0.000  0.000  0.000  0.000  0.000  0.000  0.000  0.000
 

 k-point    3 :    0.00502513 0.00000000 0.00000000     weight = 0.00166667

band   1 # energy  -59.49922159 # occ.  2.00000000
 
ion      s     py     pz     px    dxy    dyz    dz2    dxz    dx2    tot
  1  0.000  0.003  0.000  0.991  0.000  0.000  0.000  0.000  0.000  0.995
  2  0.000  0.000  0.000  0.000  0.000  0.000  0.000  0.000  0.000  0.000
tot  0.000  0.003  0.000  0.991  0.000  0.000  0.000  0.000  0.000  0.995
 
band   2 # energy  -59.49786396 # occ.  2.00000000
 
ion      s     py     pz     px    dxy    dyz    dz2    dxz    dx2    tot
  1  0.000  0.991  0.000  0.003  0.000  0.000  0.000  0.000  0.000  0.995
  2  0.000  0.000  0.000  0.000  0.000  0.000  0.000  0.000  0.000  0.000
tot  0.000  0.991  0.000  0.003  0.000  0.000  0.000  0.000  0.000  0.995
 
band   3 # energy  -59.39669161 # occ.  2.00000000
 
ion      s     py     pz     px    dxy    dyz    dz2    dxz    dx2    tot
  1  0.000  0.000  0.995  0.000  0.000  0.000  0.000  0.000  0.000  0.995
  2  0.000  0.000  0.000  0.000  0.000  0.000  0.000  0.000  0.000  0.000
tot  0.000  0.000  0.995  0.000  0.000  0.000  0.000  0.000  0.000  0.995
 
band   4 # energy  -15.13650634 # occ.  2.00000000
 
ion      s     py     pz     px    dxy    dyz    dz2    dxz    dx2    tot
  1  0.015  0.000  0.000  0.000  0.000  0.000  0.008  0.000  0.000  0.023
  2  0.648  0.000  0.000  0.000  0.000  0.000  0.000  0.000  0.000  0.648
tot  0.663  0.000  0.000  0.000  0.000  0.000  0.008  0.000  0.000  0.671
 
band   5 # energy   -8.95919141 # occ.  2.00000000
 
ion      s     py     pz     px    dxy    dyz    dz2    dxz    dx2    tot
  1  0.000  0.000  0.000  0.001  0.708  0.000  0.000  0.000  0.002  0.712
  2  0.000  0.000  0.000  0.084  0.000  0.000  0.000  0.000  0.000  0.085
tot  0.000  0.000  0.000  0.085  0.708  0.000  0.000  0.000  0.002  0.796
 
band   6 # energy   -8.95766128 # occ.  2.00000000
 
ion      s     py     pz     px    dxy    dyz    dz2    dxz    dx2    tot
  1  0.000  0.001  0.000  0.000  0.002  0.000  0.000  0.000  0.709  0.712
  2  0.000  0.084  0.000  0.000  0.000  0.000  0.000  0.000  0.000  0.084
tot  0.000  0.085  0.000  0.000  0.002  0.000  0.000  0.000  0.709  0.796
 
band   7 # energy   -8.20279747 # occ.  2.00000000
 
ion      s     py     pz     px    dxy    dyz    dz2    dxz    dx2    tot
  1  0.000  0.000  0.000  0.000  0.000  0.002  0.000  0.890  0.000  0.892
  2  0.000  0.000  0.000  0.000  0.000  0.000  0.000  0.001  0.000  0.001
tot  0.000  0.000  0.000  0.000  0.000  0.002  0.000  0.890  0.000  0.893
 
band   8 # energy   -8.20094954 # occ.  2.00000000
 
ion      s     py     pz     px    dxy    dyz    dz2    dxz    dx2    tot
  1  0.000  0.000  0.000  0.000  0.000  0.890  0.000  0.002  0.000  0.892
  2  0.000  0.000  0.000  0.000  0.000  0.001  0.000  0.000  0.000  0.001
tot  0.000  0.000  0.000  0.000  0.000  0.891  0.000  0.002  0.000  0.893
 
band   9 # energy   -8.08167447 # occ.  2.00000000
 
ion      s     py     pz     px    dxy    dyz    dz2    dxz    dx2    tot
  1  0.001  0.000  0.000  0.000  0.000  0.000  0.885  0.000  0.000  0.886
  2  0.007  0.000  0.000  0.000  0.000  0.000  0.001  0.000  0.000  0.008
tot  0.008  0.000  0.000  0.000  0.000  0.000  0.886  0.000  0.000  0.894
 
band  10 # energy   -5.97450833 # occ.  2.00000000
 
ion      s     py     pz     px    dxy    dyz    dz2    dxz    dx2    tot
  1  0.000  0.000  0.006  0.000  0.000  0.000  0.000  0.000  0.000  0.006
  2  0.000  0.000  0.382  0.000  0.000  0.000  0.000  0.000  0.000  0.382
tot  0.000  0.000  0.388  0.000  0.000  0.000  0.000  0.000  0.000  0.388
 
band  11 # energy   -4.73203448 # occ.  0.00000000
 
ion      s     py     pz     px    dxy    dyz    dz2    dxz    dx2    tot
  1  0.000  0.000  0.000  0.014  0.203  0.000  0.000  0.000  0.001  0.218
  2  0.000  0.001  0.000  0.388  0.001  0.000  0.000  0.000  0.000  0.390
tot  0.000  0.001  0.000  0.402  0.204  0.000  0.000  0.000  0.001  0.608
 
band  12 # energy   -4.72609091 # occ.  0.00000000
 
ion      s     py     pz     px    dxy    dyz    dz2    dxz    dx2    tot
  1  0.000  0.014  0.000  0.000  0.001  0.000  0.000  0.000  0.203  0.218
  2  0.000  0.389  0.000  0.001  0.000  0.000  0.000  0.000  0.001  0.390
tot  0.000  0.403  0.000  0.001  0.001  0.000  0.000  0.000  0.204  0.608
 
band  13 # energy   -3.51053743 # occ.  0.00000000
 
ion      s     py     pz     px    dxy    dyz    dz2    dxz    dx2    tot
  1  0.247  0.000  0.000  0.000  0.000  0.000  0.003  0.000  0.000  0.250
  2  0.115  0.000  0.000  0.000  0.000  0.000  0.007  0.000  0.000  0.123
tot  0.362  0.000  0.000  0.000  0.000  0.000  0.010  0.000  0.000  0.373
 
band  14 # energy   -0.14523359 # occ.  0.00000000
 
ion      s     py     pz     px    dxy    dyz    dz2    dxz    dx2    tot
  1  0.025  0.000  0.001  0.000  0.000  0.000  0.005  0.000  0.000  0.030
  2  0.000  0.000  0.007  0.000  0.000  0.000  0.011  0.000  0.000  0.018
tot  0.025  0.000  0.008  0.000  0.000  0.000  0.015  0.000  0.000  0.048
 
band  15 # energy   -0.13271738 # occ.  0.00000000
 
ion      s     py     pz     px    dxy    dyz    dz2    dxz    dx2    tot
  1  0.002  0.000  0.007  0.000  0.000  0.000  0.000  0.000  0.000  0.009
  2  0.000  0.000  0.072  0.000  0.000  0.000  0.001  0.000  0.000  0.073
tot  0.002  0.000  0.079  0.000  0.000  0.000  0.001  0.000  0.000  0.083
 
band  16 # energy    0.34707804 # occ.  0.00000000
 
ion      s     py     pz     px    dxy    dyz    dz2    dxz    dx2    tot
  1  0.000  0.000  0.000  0.000  0.000  0.000  0.000  0.000  0.000  0.000
  2  0.000  0.000  0.000  0.000  0.000  0.000  0.000  0.000  0.000  0.000
tot  0.000  0.000  0.000  0.000  0.000  0.000  0.000  0.000  0.000  0.001
 

 k-point    4 :    0.00753769 0.00000000 0.00000000     weight = 0.00166667

band   1 # energy  -59.49921546 # occ.  2.00000000
 
ion      s     py     pz     px    dxy    dyz    dz2    dxz    dx2    tot
  1  0.000  0.004  0.000  0.991  0.000  0.000  0.000  0.000  0.000  0.995
  2  0.000  0.000  0.000  0.000  0.000  0.000  0.000  0.000  0.000  0.000
tot  0.000  0.004  0.000  0.991  0.000  0.000  0.000  0.000  0.000  0.995
 
band   2 # energy  -59.49786055 # occ.  2.00000000
 
ion      s     py     pz     px    dxy    dyz    dz2    dxz    dx2    tot
  1  0.000  0.991  0.000  0.004  0.000  0.000  0.000  0.000  0.000  0.995
  2  0.000  0.000  0.000  0.000  0.000  0.000  0.000  0.000  0.000  0.000
tot  0.000  0.991  0.000  0.004  0.000  0.000  0.000  0.000  0.000  0.995
 
band   3 # energy  -59.39668402 # occ.  2.00000000
 
ion      s     py     pz     px    dxy    dyz    dz2    dxz    dx2    tot
  1  0.000  0.000  0.995  0.000  0.000  0.000  0.000  0.000  0.000  0.995
  2  0.000  0.000  0.000  0.000  0.000  0.000  0.000  0.000  0.000  0.000
tot  0.000  0.000  0.995  0.000  0.000  0.000  0.000  0.000  0.000  0.995
 
band   4 # energy  -15.13644784 # occ.  2.00000000
 
ion      s     py     pz     px    dxy    dyz    dz2    dxz    dx2    tot
  1  0.015  0.000  0.000  0.000  0.000  0.000  0.008  0.000  0.000  0.023
  2  0.648  0.000  0.000  0.000  0.000  0.000  0.000  0.000  0.000  0.648
tot  0.663  0.000  0.000  0.000  0.000  0.000  0.008  0.000  0.000  0.671
 
band   5 # energy   -8.95915153 # occ.  2.00000000
 
ion      s     py     pz     px    dxy    dyz    dz2    dxz    dx2    tot
  1  0.000  0.000  0.000  0.001  0.708  0.000  0.000  0.000  0.002  0.712
  2  0.000  0.000  0.000  0.084  0.000  0.000  0.000  0.000  0.000  0.085
tot  0.000  0.000  0.000  0.085  0.709  0.000  0.000  0.000  0.002  0.796
 
band   6 # energy   -8.95759265 # occ.  2.00000000
 
ion      s     py     pz     px    dxy    dyz    dz2    dxz    dx2    tot
  1  0.000  0.001  0.000  0.000  0.002  0.000  0.000  0.000  0.709  0.712
  2  0.000  0.084  0.000  0.000  0.000  0.000  0.000  0.000  0.000  0.084
tot  0.000  0.085  0.000  0.000  0.002  0.000  0.000  0.000  0.709  0.796
 
band   7 # energy   -8.20283592 # occ.  2.00000000
 
ion      s     py     pz     px    dxy    dyz    dz2    dxz    dx2    tot
  1  0.000  0.000  0.000  0.000  0.000  0.001  0.000  0.891  0.000  0.892
  2  0.000  0.000  0.000  0.000  0.000  0.000  0.000  0.001  0.000  0.001
tot  0.000  0.000  0.000  0.000  0.000  0.001  0.000  0.891  0.000  0.893
 
band   8 # energy   -8.20096640 # occ.  2.00000000
 
ion      s     py     pz     px    dxy    dyz    dz2    dxz    dx2    tot
  1  0.000  0.000  0.000  0.000  0.000  0.891  0.000  0.001  0.000  0.892
  2  0.000  0.000  0.000  0.000  0.000  0.001  0.000  0.000  0.000  0.001
tot  0.000  0.000  0.000  0.000  0.000  0.891  0.000  0.001  0.000  0.893
 
band   9 # energy   -8.08167835 # occ.  2.00000000
 
ion      s     py     pz     px    dxy    dyz    dz2    dxz    dx2    tot
  1  0.001  0.000  0.000  0.000  0.000  0.000  0.885  0.000  0.000  0.886
  2  0.007  0.000  0.000  0.000  0.000  0.000  0.001  0.000  0.000  0.008
tot  0.008  0.000  0.000  0.000  0.000  0.000  0.886  0.000  0.000  0.894
 
band  10 # energy   -5.97432240 # occ.  2.00000000
 
ion      s     py     pz     px    dxy    dyz    dz2    dxz    dx2    tot
  1  0.000  0.000  0.006  0.000  0.000  0.000  0.000  0.000  0.000  0.006
  2  0.000  0.000  0.382  0.000  0.000  0.000  0.000  0.000  0.000  0.382
tot  0.000  0.000  0.388  0.000  0.000  0.000  0.000  0.000  0.000  0.388
 
band  11 # energy   -4.73388985 # occ.  0.00000000
 
ion      s     py     pz     px    dxy    dyz    dz2    dxz    dx2    tot
  1  0.001  0.000  0.000  0.014  0.199  0.000  0.000  0.000  0.005  0.218
  2  0.000  0.009  0.000  0.379  0.001  0.000  0.000  0.000  0.000  0.389
tot  0.001  0.009  0.000  0.393  0.200  0.000  0.000  0.000  0.005  0.607
 
band  12 # energy   -4.72676800 # occ.  0.00000000
 
ion      s     py     pz     px    dxy    dyz    dz2    dxz    dx2    tot
  1  0.000  0.013  0.000  0.000  0.005  0.000  0.000  0.000  0.199  0.218
  2  0.000  0.381  0.000  0.009  0.000  0.000  0.000  0.000  0.001  0.390
tot  0.000  0.394  0.000  0.009  0.005  0.000  0.000  0.000  0.200  0.608
 
band  13 # energy   -3.50837373 # occ.  0.00000000
 
ion      s     py     pz     px    dxy    dyz    dz2    dxz    dx2    tot
  1  0.247  0.000  0.000  0.000  0.000  0.000  0.003  0.000  0.000  0.250
  2  0.115  0.000  0.000  0.001  0.000  0.000  0.007  0.000  0.000  0.124
tot  0.362  0.000  0.000  0.001  0.000  0.000  0.010  0.000  0.000  0.374
 
band  14 # energy   -0.14510304 # occ.  0.00000000
 
ion      s     py     pz     px    dxy    dyz    dz2    dxz    dx2    tot
  1  0.025  0.000  0.001  0.000  0.000  0.000  0.005  0.000  0.000  0.030
  2  0.000  0.000  0.007  0.000  0.000  0.000  0.011  0.000  0.000  0.018
tot  0.025  0.000  0.008  0.000  0.000  0.000  0.015  0.000  0.000  0.048
 
band  15 # energy   -0.13265017 # occ.  0.00000000
 
ion      s     py     pz     px    dxy    dyz    dz2    dxz    dx2    tot
  1  0.002  0.000  0.007  0.000  0.000  0.000  0.000  0.000  0.000  0.010
  2  0.000  0.000  0.072  0.000  0.000  0.000  0.001  0.000  0.000  0.073
tot  0.002  0.000  0.079  0.000  0.000  0.000  0.001  0.000  0.000  0.083
 
band  16 # energy    0.69199250 # occ.  0.00000000
 
ion      s     py     pz     px    dxy    dyz    dz2    dxz    dx2    tot
  1  0.003  0.013  0.000  0.034  0.009  0.000  0.000  0.000  0.003  0.062
  2  0.000  0.003  0.000  0.009  0.047  0.000  0.001  0.000  0.017  0.078
tot  0.003  0.016  0.000  0.044  0.056  0.000  0.001  0.000  0.020  0.140
 

 k-point    5 :    0.01005025 0.00000000 0.00000000     weight = 0.00166667

band   1 # energy  -59.49920751 # occ.  2.00000000
 
ion      s     py     pz     px    dxy    dyz    dz2    dxz    dx2    tot
  1  0.000  0.004  0.000  0.991  0.000  0.000  0.000  0.000  0.000  0.995
  2  0.000  0.000  0.000  0.000  0.000  0.000  0.000  0.000  0.000  0.000
tot  0.000  0.004  0.000  0.991  0.000  0.000  0.000  0.000  0.000  0.995
 
band   2 # energy  -59.49785496 # occ.  2.00000000
 
ion      s     py     pz     px    dxy    dyz    dz2    dxz    dx2    tot
  1  0.000  0.991  0.000  0.004  0.000  0.000  0.000  0.000  0.000  0.995
  2  0.000  0.000  0.000  0.000  0.000  0.000  0.000  0.000  0.000  0.000
tot  0.000  0.991  0.000  0.004  0.000  0.000  0.000  0.000  0.000  0.995
 
band   3 # energy  -59.39668050 # occ.  2.00000000
 
ion      s     py     pz     px    dxy    dyz    dz2    dxz    dx2    tot
  1  0.000  0.000  0.995  0.000  0.000  0.000  0.000  0.000  0.000  0.995
  2  0.000  0.000  0.000  0.000  0.000  0.000  0.000  0.000  0.000  0.000
tot  0.000  0.000  0.995  0.000  0.000  0.000  0.000  0.000  0.000  0.995
 
band   4 # energy  -15.13636597 # occ.  2.00000000
 
ion      s     py     pz     px    dxy    dyz    dz2    dxz    dx2    tot
  1  0.015  0.000  0.000  0.000  0.000  0.000  0.008  0.000  0.000  0.023
  2  0.648  0.000  0.000  0.000  0.000  0.000  0.000  0.000  0.000  0.648
tot  0.663  0.000  0.000  0.000  0.000  0.000  0.008  0.000  0.000  0.671
 
band   5 # energy   -8.95909701 # occ.  2.00000000
 
ion      s     py     pz     px    dxy    dyz    dz2    dxz    dx2    tot
  1  0.000  0.000  0.000  0.001  0.708  0.000  0.000  0.000  0.003  0.712
  2  0.000  0.000  0.000  0.084  0.000  0.000  0.000  0.000  0.000  0.085
tot  0.000  0.000  0.000  0.085  0.708  0.000  0.000  0.000  0.003  0.796
 
band   6 # energy   -8.95749495 # occ.  2.00000000
 
ion      s     py     pz     px    dxy    dyz    dz2    dxz    dx2    tot
  1  0.000  0.001  0.000  0.000  0.003  0.000  0.000  0.000  0.708  0.712
  2  0.000  0.084  0.000  0.000  0.000  0.000  0.000  0.000  0.000  0.084
tot  0.000  0.085  0.000  0.000  0.003  0.000  0.000  0.000  0.708  0.796
 
band   7 # energy   -8.20289197 # occ.  2.00000000
 
ion      s     py     pz     px    dxy    dyz    dz2    dxz    dx2    tot
  1  0.000  0.000  0.000  0.000  0.000  0.000  0.000  0.892  0.000  0.892
  2  0.000  0.000  0.000  0.000  0.000  0.000  0.000  0.001  0.000  0.001
tot  0.000  0.000  0.000  0.000  0.000  0.000  0.000  0.892  0.000  0.893
 
band   8 # energy   -8.20098948 # occ.  2.00000000
 
ion      s     py     pz     px    dxy    dyz    dz2    dxz    dx2    tot
  1  0.000  0.000  0.000  0.000  0.000  0.892  0.000  0.000  0.000  0.892
  2  0.000  0.000  0.000  0.000  0.000  0.001  0.000  0.000  0.000  0.001
tot  0.000  0.000  0.000  0.000  0.000  0.892  0.000  0.000  0.000  0.893
 
band   9 # energy   -8.08168416 # occ.  2.00000000
 
ion      s     py     pz     px    dxy    dyz    dz2    dxz    dx2    tot
  1  0.001  0.000  0.000  0.000  0.000  0.000  0.885  0.000  0.000  0.886
  2  0.007  0.000  0.000  0.000  0.000  0.000  0.001  0.000  0.000  0.008
tot  0.008  0.000  0.000  0.000  0.000  0.000  0.886  0.000  0.000  0.894
 
band  10 # energy   -5.97406217 # occ.  2.00000000
 
ion      s     py     pz     px    dxy    dyz    dz2    dxz    dx2    tot
  1  0.000  0.000  0.006  0.000  0.000  0.000  0.000  0.000  0.000  0.006
  2  0.000  0.000  0.382  0.000  0.000  0.000  0.000  0.000  0.000  0.382
tot  0.000  0.000  0.388  0.000  0.000  0.000  0.000  0.000  0.000  0.388
 
band  11 # energy   -4.73663813 # occ.  0.00000000
 
ion      s     py     pz     px    dxy    dyz    dz2    dxz    dx2    tot
  1  0.001  0.001  0.000  0.013  0.192  0.000  0.000  0.000  0.012  0.219
  2  0.001  0.023  0.000  0.365  0.001  0.000  0.000  0.000  0.000  0.388
tot  0.002  0.023  0.000  0.378  0.192  0.000  0.000  0.000  0.012  0.607
 
band  12 # energy   -4.72755149 # occ.  0.00000000
 
ion      s     py     pz     px    dxy    dyz    dz2    dxz    dx2    tot
  1  0.000  0.013  0.000  0.001  0.012  0.000  0.000  0.000  0.192  0.218
  2  0.000  0.367  0.000  0.023  0.000  0.000  0.000  0.000  0.001  0.390
tot  0.000  0.380  0.000  0.024  0.012  0.000  0.000  0.000  0.192  0.608
 
band  13 # energy   -3.50535806 # occ.  0.00000000
 
ion      s     py     pz     px    dxy    dyz    dz2    dxz    dx2    tot
  1  0.246  0.000  0.000  0.000  0.000  0.000  0.003  0.000  0.000  0.250
  2  0.115  0.001  0.000  0.002  0.000  0.000  0.007  0.000  0.000  0.124
tot  0.361  0.001  0.000  0.002  0.000  0.000  0.010  0.000  0.000  0.374
 
band  14 # energy   -0.14460250 # occ.  0.00000000
 
ion      s     py     pz     px    dxy    dyz    dz2    dxz    dx2    tot
  1  0.025  0.000  0.001  0.000  0.000  0.000  0.005  0.000  0.000  0.030
  2  0.000  0.000  0.008  0.000  0.000  0.000  0.010  0.000  0.000  0.018
tot  0.025  0.000  0.008  0.000  0.000  0.000  0.015  0.000  0.000  0.048
 
band  15 # energy   -0.13255428 # occ.  0.00000000
 
ion      s     py     pz     px    dxy    dyz    dz2    dxz    dx2    tot
  1  0.003  0.000  0.007  0.000  0.000  0.000  0.000  0.000  0.000  0.010
  2  0.000  0.000  0.072  0.000  0.000  0.000  0.001  0.000  0.000  0.073
tot  0.003  0.000  0.078  0.000  0.000  0.000  0.002  0.000  0.000  0.082
 
band  16 # energy    0.37216340 # occ.  0.00000000
 
ion      s     py     pz     px    dxy    dyz    dz2    dxz    dx2    tot
  1  0.000  0.000  0.001  0.000  0.000  0.000  0.000  0.000  0.000  0.001
  2  0.000  0.000  0.004  0.000  0.000  0.000  0.000  0.000  0.000  0.004
tot  0.000  0.000  0.005  0.000  0.000  0.000  0.000  0.000  0.000  0.006
 

 k-point    6 :    0.01256281 0.00000000 0.00000000     weight = 0.00166667

band   1 # energy  -59.49920944 # occ.  2.00000000
 
ion      s     py     pz     px    dxy    dyz    dz2    dxz    dx2    tot
  1  0.000  0.004  0.000  0.991  0.000  0.000  0.000  0.000  0.000  0.995
  2  0.000  0.000  0.000  0.000  0.000  0.000  0.000  0.000  0.000  0.000
tot  0.000  0.004  0.000  0.991  0.000  0.000  0.000  0.000  0.000  0.995
 
band   2 # energy  -59.49785585 # occ.  2.00000000
 
ion      s     py     pz     px    dxy    dyz    dz2    dxz    dx2    tot
  1  0.000  0.991  0.000  0.004  0.000  0.000  0.000  0.000  0.000  0.995
  2  0.000  0.000  0.000  0.000  0.000  0.000  0.000  0.000  0.000  0.000
tot  0.000  0.991  0.000  0.004  0.000  0.000  0.000  0.000  0.000  0.995
 
band   3 # energy  -59.39668286 # occ.  2.00000000
 
ion      s     py     pz     px    dxy    dyz    dz2    dxz    dx2    tot
  1  0.000  0.000  0.995  0.000  0.000  0.000  0.000  0.000  0.000  0.995
  2  0.000  0.000  0.000  0.000  0.000  0.000  0.000  0.000  0.000  0.000
tot  0.000  0.000  0.995  0.000  0.000  0.000  0.000  0.000  0.000  0.995
 
band   4 # energy  -15.13626094 # occ.  2.00000000
 
ion      s     py     pz     px    dxy    dyz    dz2    dxz    dx2    tot
  1  0.015  0.000  0.000  0.000  0.000  0.000  0.008  0.000  0.000  0.023
  2  0.648  0.000  0.000  0.000  0.000  0.000  0.000  0.000  0.000  0.648