       N       E                     dE             d eps       ncg     rms          rms(c)
DAV:   1     0.131536498601E+03    0.13154E+03   -0.81151E+03  4080   0.791E+02
DAV:   2     0.495995851725E+02   -0.81937E+02   -0.78952E+02  4280   0.153E+02
DAV:   3    -0.668119702796E+00   -0.50268E+02   -0.48248E+02  4432   0.558E+01
DAV:   4    -0.495982388527E+01   -0.42917E+01   -0.41966E+01  2768   0.265E+01
DAV:   5    -0.503384115480E+01   -0.74017E-01   -0.73213E-01  3712   0.414E+00    0.367E+00
RMM:   6    -0.483989890924E+01    0.19394E+00   -0.18819E+00  2956   0.985E+00    0.377E+00
RMM:   7    -0.480379874989E+01    0.36100E-01   -0.41762E-02  3055   0.194E+00    0.252E+00
RMM:   8    -0.479869077070E+01    0.51080E-02   -0.14189E-01  2943   0.346E+00    0.607E-01
RMM:   9    -0.479447205847E+01    0.42187E-02   -0.55504E-03  3118   0.685E-01    0.371E-01
RMM:  10    -0.479319565058E+01    0.12764E-02   -0.85867E-03  3103   0.742E-01    0.782E-02
RMM:  11    -0.479323091464E+01   -0.35264E-04   -0.50015E-04  3274   0.205E-01    0.772E-02
RMM:  12    -0.479316288255E+01    0.68032E-04   -0.23368E-04  3080   0.133E-01    0.110E-02
RMM:  13    -0.479318225643E+01   -0.19374E-04   -0.29934E-05  2370   0.446E-02    0.143E-02
RMM:  14    -0.479323225466E+01   -0.49998E-04   -0.19633E-05  1996   0.316E-02    0.302E-03
RMM:  15    -0.479324043299E+01   -0.81783E-05   -0.28236E-06  2018   0.127E-02
   1 F= -.47932404E+01 E0= -.47930879E+01  d E =-.457534E-03
