PROCAR lm decomposed
# of k-points:   85         # of bands:  16         # of ions:   2

 k-point    1 :    0.00000000 0.00000000 0.00000000     weight = 0.00591716

band   1 # energy  -59.50470363 # occ.  2.00000000
 
ion      s     py     pz     px    dxy    dyz    dz2    dxz    dx2    tot
  1  0.000  0.003  0.000  0.991  0.000  0.000  0.000  0.000  0.000  0.995
  2  0.000  0.000  0.000  0.000  0.000  0.000  0.000  0.000  0.000  0.000
tot  0.000  0.003  0.000  0.991  0.000  0.000  0.000  0.000  0.000  0.995
 
band   2 # energy  -59.50334252 # occ.  2.00000000
 
ion      s     py     pz     px    dxy    dyz    dz2    dxz    dx2    tot
  1  0.000  0.991  0.000  0.003  0.000  0.000  0.000  0.000  0.000  0.995
  2  0.000  0.000  0.000  0.000  0.000  0.000  0.000  0.000  0.000  0.000
tot  0.000  0.991  0.000  0.003  0.000  0.000  0.000  0.000  0.000  0.995
 
band   3 # energy  -59.40193938 # occ.  2.00000000
 
ion      s     py     pz     px    dxy    dyz    dz2    dxz    dx2    tot
  1  0.000  0.000  0.995  0.000  0.000  0.000  0.000  0.000  0.000  0.995
  2  0.000  0.000  0.000  0.000  0.000  0.000  0.000  0.000  0.000  0.000
tot  0.000  0.000  0.995  0.000  0.000  0.000  0.000  0.000  0.000  0.995
 
band   4 # energy  -15.14248377 # occ.  2.00000000
 
ion      s     py     pz     px    dxy    dyz    dz2    dxz    dx2    tot
  1  0.015  0.000  0.000  0.000  0.000  0.000  0.008  0.000  0.000  0.023
  2  0.648  0.000  0.000  0.000  0.000  0.000  0.000  0.000  0.000  0.648
tot  0.663  0.000  0.000  0.000  0.000  0.000  0.008  0.000  0.000  0.671
 
band   5 # energy   -8.96526019 # occ.  2.00000000
 
ion      s     py     pz     px    dxy    dyz    dz2    dxz    dx2    tot
  1  0.000  0.000  0.000  0.001  0.708  0.000  0.000  0.000  0.002  0.712
  2  0.000  0.000  0.000  0.084  0.000  0.000  0.000  0.000  0.000  0.085
tot  0.000  0.000  0.000  0.085  0.708  0.000  0.000  0.000  0.002  0.796
 
band   6 # energy   -8.96374748 # occ.  2.00000000
 
ion      s     py     pz     px    dxy    dyz    dz2    dxz    dx2    tot
  1  0.000  0.001  0.000  0.000  0.002  0.000  0.000  0.000  0.708  0.712
  2  0.000  0.084  0.000  0.000  0.000  0.000  0.000  0.000  0.000  0.084
tot  0.000  0.085  0.000  0.000  0.002  0.000  0.000  0.000  0.709  0.796
 
band   7 # energy   -8.20806277 # occ.  2.00000000
 
ion      s     py     pz     px    dxy    dyz    dz2    dxz    dx2    tot
  1  0.000  0.000  0.000  0.000  0.000  0.003  0.000  0.889  0.000  0.892
  2  0.000  0.000  0.000  0.000  0.000  0.000  0.000  0.001  0.000  0.001
tot  0.000  0.000  0.000  0.000  0.000  0.003  0.000  0.890  0.000  0.893
 
band   8 # energy   -8.20620850 # occ.  2.00000000
 
ion      s     py     pz     px    dxy    dyz    dz2    dxz    dx2    tot
  1  0.000  0.000  0.000  0.000  0.000  0.889  0.000  0.003  0.000  0.892
  2  0.000  0.000  0.000  0.000  0.000  0.001  0.000  0.000  0.000  0.001
tot  0.000  0.000  0.000  0.000  0.000  0.890  0.000  0.003  0.000  0.893
 
band   9 # energy   -8.08755474 # occ.  2.00000000
 
ion      s     py     pz     px    dxy    dyz    dz2    dxz    dx2    tot
  1  0.001  0.000  0.000  0.000  0.000  0.000  0.885  0.000  0.000  0.886
  2  0.007  0.000  0.000  0.000  0.000  0.000  0.001  0.000  0.000  0.008
tot  0.008  0.000  0.000  0.000  0.000  0.000  0.886  0.000  0.000  0.894
 
band  10 # energy   -5.98019528 # occ.  2.00000000
 
ion      s     py     pz     px    dxy    dyz    dz2    dxz    dx2    tot
  1  0.000  0.000  0.006  0.000  0.000  0.000  0.000  0.000  0.000  0.006
  2  0.000  0.000  0.382  0.000  0.000  0.000  0.000  0.000  0.000  0.382
tot  0.000  0.000  0.388  0.000  0.000  0.000  0.000  0.000  0.000  0.388
 
band  11 # energy   -4.73622826 # occ. -0.00000000
 
ion      s     py     pz     px    dxy    dyz    dz2    dxz    dx2    tot
  1  0.000  0.000  0.000  0.014  0.203  0.000  0.000  0.000  0.001  0.218
  2  0.000  0.001  0.000  0.388  0.001  0.000  0.000  0.000  0.000  0.390
tot  0.000  0.001  0.000  0.402  0.204  0.000  0.000  0.000  0.001  0.608
 
band  12 # energy   -4.73096536 # occ. -0.00000000
 
ion      s     py     pz     px    dxy    dyz    dz2    dxz    dx2    tot
  1  0.000  0.014  0.000  0.000  0.001  0.000  0.000  0.000  0.203  0.218
  2  0.000  0.389  0.000  0.001  0.000  0.000  0.000  0.000  0.001  0.391
tot  0.000  0.402  0.000  0.001  0.001  0.000  0.000  0.000  0.204  0.608
 
band  13 # energy   -3.51803938 # occ.  0.00000000
 
ion      s     py     pz     px    dxy    dyz    dz2    dxz    dx2    tot
  1  0.247  0.000  0.000  0.000  0.000  0.000  0.003  0.000  0.000  0.250
  2  0.115  0.000  0.000  0.000  0.000  0.000  0.007  0.000  0.000  0.123
tot  0.363  0.000  0.000  0.000  0.000  0.000  0.010  0.000  0.000  0.373
 
band  14 # energy   -0.16871960 # occ.  0.00000000
 
ion      s     py     pz     px    dxy    dyz    dz2    dxz    dx2    tot
  1  0.024  0.000  0.001  0.000  0.000  0.000  0.005  0.000  0.000  0.030
  2  0.000  0.000  0.007  0.000  0.000  0.000  0.010  0.000  0.000  0.018
tot  0.024  0.000  0.008  0.000  0.000  0.000  0.015  0.000  0.000  0.047
 
band  15 # energy   -0.15381879 # occ.  0.00000000
 
ion      s     py     pz     px    dxy    dyz    dz2    dxz    dx2    tot
  1  0.002  0.000  0.006  0.000  0.000  0.000  0.000  0.000  0.000  0.009
  2  0.000  0.000  0.071  0.000  0.000  0.000  0.001  0.000  0.000  0.072
tot  0.002  0.000  0.077  0.000  0.000  0.000  0.001  0.000  0.000  0.081
 
band  16 # energy    0.34095192 # occ.  0.00000000
 
ion      s     py     pz     px    dxy    dyz    dz2    dxz    dx2    tot
  1  0.000  0.000  0.000  0.000  0.000  0.000  0.000  0.000  0.000  0.000
  2  0.000  0.000  0.000  0.000  0.000  0.000  0.000  0.000  0.000  0.000
tot  0.000  0.000  0.000  0.000  0.000  0.000  0.000  0.000  0.000  0.000
 

 k-point    2 :    0.07692308 0.00000000 0.00000000     weight = 0.01183432

band   1 # energy  -59.50468516 # occ.  2.00000000
 
ion      s     py     pz     px    dxy    dyz    dz2    dxz    dx2    tot
  1  0.000  0.004  0.000  0.991  0.000  0.000  0.000  0.000  0.000  0.995
  2  0.000  0.000  0.000  0.000  0.000  0.000  0.000  0.000  0.000  0.000
tot  0.000  0.004  0.000  0.991  0.000  0.000  0.000  0.000  0.000  0.995
 
band   2 # energy  -59.50332950 # occ.  2.00000000
 
ion      s     py     pz     px    dxy    dyz    dz2    dxz    dx2    tot
  1  0.000  0.991  0.000  0.004  0.000  0.000  0.000  0.000  0.000  0.995
  2  0.000  0.000  0.000  0.000  0.000  0.000  0.000  0.000  0.000  0.000
tot  0.000  0.991  0.000  0.004  0.000  0.000  0.000  0.000  0.000  0.995
 
band   3 # energy  -59.40191782 # occ.  2.00000000
 
ion      s     py     pz     px    dxy    dyz    dz2    dxz    dx2    tot
  1  0.000  0.000  0.995  0.000  0.000  0.000  0.000  0.000  0.000  0.995
  2  0.000  0.000  0.000  0.000  0.000  0.000  0.000  0.000  0.000  0.000
tot  0.000  0.000  0.995  0.000  0.000  0.000  0.000  0.000  0.000  0.995
 
band   4 # energy  -15.13172122 # occ.  2.00000000
 
ion      s     py     pz     px    dxy    dyz    dz2    dxz    dx2    tot
  1  0.014  0.000  0.000  0.000  0.000  0.000  0.008  0.000  0.000  0.023
  2  0.649  0.000  0.000  0.000  0.000  0.000  0.000  0.000  0.000  0.649
tot  0.663  0.000  0.000  0.000  0.000  0.000  0.008  0.000  0.000  0.672
 
band   5 # energy   -8.96006678 # occ.  2.00000000
 
ion      s     py     pz     px    dxy    dyz    dz2    dxz    dx2    tot
  1  0.001  0.000  0.000  0.001  0.555  0.000  0.009  0.000  0.141  0.708
  2  0.000  0.017  0.000  0.068  0.000  0.000  0.000  0.000  0.000  0.085
tot  0.001  0.017  0.000  0.069  0.555  0.000  0.009  0.000  0.141  0.793
 
band   6 # energy   -8.94862822 # occ.  2.00000000
 
ion      s     py     pz     px    dxy    dyz    dz2    dxz    dx2    tot
  1  0.000  0.001  0.000  0.000  0.145  0.000  0.000  0.000  0.568  0.715
  2  0.000  0.067  0.000  0.016  0.000  0.000  0.000  0.000  0.000  0.083
tot  0.000  0.067  0.000  0.017  0.145  0.000  0.000  0.000  0.568  0.798
 
band   7 # energy   -8.21753396 # occ.  2.00000000
 
ion      s     py     pz     px    dxy    dyz    dz2    dxz    dx2    tot
  1  0.000  0.000  0.000  0.000  0.000  0.159  0.000  0.728  0.000  0.887
  2  0.000  0.000  0.002  0.000  0.000  0.000  0.000  0.000  0.000  0.002
tot  0.000  0.000  0.002  0.000  0.000  0.159  0.000  0.728  0.000  0.889
 
band   8 # energy   -8.20725327 # occ.  2.00000000
 
ion      s     py     pz     px    dxy    dyz    dz2    dxz    dx2    tot
  1  0.000  0.000  0.000  0.000  0.000  0.732  0.000  0.160  0.000  0.892
  2  0.000  0.000  0.000  0.000  0.000  0.000  0.000  0.000  0.000  0.001
tot  0.000  0.000  0.000  0.000  0.000  0.732  0.000  0.160  0.000  0.893
 
band   9 # energy   -8.08845708 # occ.  2.00000000
 
ion      s     py     pz     px    dxy    dyz    dz2    dxz    dx2    tot
  1  0.001  0.000  0.000  0.000  0.008  0.000  0.874  0.000  0.003  0.886
  2  0.007  0.000  0.000  0.000  0.000  0.000  0.001  0.000  0.000  0.008
tot  0.008  0.000  0.000  0.000  0.008  0.000  0.875  0.000  0.003  0.895
 
band  10 # energy   -5.94593684 # occ.  2.00000000
 
ion      s     py     pz     px    dxy    dyz    dz2    dxz    dx2    tot
  1  0.000  0.000  0.006  0.000  0.000  0.001  0.000  0.004  0.000  0.012
  2  0.000  0.000  0.383  0.000  0.000  0.000  0.000  0.000  0.000  0.383
tot  0.000  0.000  0.389  0.000  0.000  0.001  0.000  0.004  0.000  0.394
 
band  11 # energy   -5.05051275 # occ. -0.00000000
 
ion      s     py     pz     px    dxy    dyz    dz2    dxz    dx2    tot
  1  0.043  0.003  0.000  0.008  0.143  0.000  0.001  0.000  0.045  0.242
  2  0.015  0.076  0.000  0.238  0.001  0.000  0.001  0.000  0.000  0.331
tot  0.058  0.078  0.000  0.246  0.143  0.000  0.002  0.000  0.046  0.573
 
band  12 # energy   -4.80207113 # occ. -0.00000000
 
ion      s     py     pz     px    dxy    dyz    dz2    dxz    dx2    tot
  1  0.000  0.011  0.000  0.004  0.048  0.000  0.000  0.000  0.150  0.213
  2  0.000  0.293  0.000  0.094  0.000  0.000  0.000  0.000  0.001  0.387
tot  0.000  0.303  0.000  0.097  0.048  0.000  0.000  0.000  0.151  0.600
 
band  13 # energy   -3.20134536 # occ.  0.00000000
 
ion      s     py     pz     px    dxy    dyz    dz2    dxz    dx2    tot
  1  0.205  0.001  0.000  0.003  0.012  0.000  0.004  0.000  0.004  0.228
  2  0.097  0.018  0.000  0.055  0.000  0.000  0.006  0.000  0.000  0.176
tot  0.302  0.019  0.000  0.057  0.012  0.000  0.011  0.000  0.004  0.404
 
band  14 # energy   -0.14729482 # occ.  0.00000000
 
ion      s     py     pz     px    dxy    dyz    dz2    dxz    dx2    tot
  1  0.001  0.000  0.008  0.000  0.000  0.000  0.000  0.000  0.000  0.010
  2  0.000  0.000  0.078  0.000  0.000  0.000  0.000  0.001  0.000  0.080
tot  0.001  0.000  0.087  0.000  0.000  0.000  0.001  0.001  0.000  0.090
 
band  15 # energy   -0.12536071 # occ.  0.00000000
 
ion      s     py     pz     px    dxy    dyz    dz2    dxz    dx2    tot
  1  0.028  0.000  0.000  0.000  0.000  0.000  0.004  0.000  0.000  0.033
  2  0.000  0.000  0.003  0.001  0.001  0.000  0.011  0.000  0.000  0.016
tot  0.028  0.000  0.004  0.001  0.001  0.000  0.015  0.000  0.000  0.049
 
band  16 # energy    0.39044637 # occ.  0.00000000
 
ion      s     py     pz     px    dxy    dyz    dz2    dxz    dx2    tot
  1  0.000  0.000  0.000  0.000  0.000  0.000  0.000  0.000  0.000  0.001
  2  0.000  0.000  0.000  0.000  0.000  0.000  0.000  0.000  0.000  0.001
tot  0.000  0.000  0.000  0.000  0.000  0.000  0.000  0.000  0.000  0.001
 

 k-point    3 :    0.15384615 0.00000000 0.00000000     weight = 0.01183432

band   1 # energy  -59.50468810 # occ.  2.00000000
 
ion      s     py     pz     px    dxy    dyz    dz2    dxz    dx2    tot
  1  0.000  0.003  0.000  0.992  0.000  0.000  0.000  0.000  0.000  0.995
  2  0.000  0.000  0.000  0.000  0.000  0.000  0.000  0.000  0.000  0.000
tot  0.000  0.003  0.000  0.992  0.000  0.000  0.000  0.000  0.000  0.995
 
band   2 # energy  -59.50332233 # occ.  2.00000000
 
ion      s     py     pz     px    dxy    dyz    dz2    dxz    dx2    tot
  1  0.000  0.992  0.000  0.003  0.000  0.000  0.000  0.000  0.000  0.995
  2  0.000  0.000  0.000  0.000  0.000  0.000  0.000  0.000  0.000  0.000
tot  0.000  0.992  0.000  0.003  0.000  0.000  0.000  0.000  0.000  0.995
 
band   3 # energy  -59.40190083 # occ.  2.00000000
 
ion      s     py     pz     px    dxy    dyz    dz2    dxz    dx2    tot
  1  0.000  0.000  0.995  0.000  0.000  0.000  0.000  0.000  0.000  0.995
  2  0.000  0.000  0.000  0.000  0.000  0.000  0.000  0.000  0.000  0.000
tot  0.000  0.000  0.995  0.000  0.000  0.000  0.000  0.000  0.000  0.995
 
band   4 # energy  -15.10159806 # occ.  2.00000000
 
ion      s     py     pz     px    dxy    dyz    dz2    dxz    dx2    tot
  1  0.012  0.000  0.000  0.000  0.002  0.000  0.007  0.000  0.001  0.022
  2  0.653  0.000  0.000  0.000  0.000  0.000  0.000  0.000  0.000  0.653
tot  0.665  0.000  0.000  0.000  0.002  0.000  0.007  0.000  0.001  0.675
 
band   5 # energy   -8.94258791 # occ.  2.00000000
 
ion      s     py     pz     px    dxy    dyz    dz2    dxz    dx2    tot
  1  0.004  0.000  0.000  0.001  0.498  0.000  0.039  0.000  0.155  0.697
  2  0.000  0.020  0.000  0.067  0.000  0.000  0.000  0.000  0.000  0.087
tot  0.004  0.020  0.000  0.067  0.498  0.000  0.039  0.000  0.155  0.784
 
band   6 # energy   -8.90426916 # occ.  2.00000000
 
ion      s     py     pz     px    dxy    dyz    dz2    dxz    dx2    tot
  1  0.000  0.001  0.000  0.000  0.172  0.000  0.000  0.000  0.550  0.723
  2  0.000  0.061  0.000  0.018  0.000  0.000  0.000  0.000  0.000  0.080
tot  0.000  0.062  0.000  0.018  0.172  0.000  0.000  0.000  0.551  0.803
 
band   7 # energy   -8.24397016 # occ.  2.00000000
 
ion      s     py     pz     px    dxy    dyz    dz2    dxz    dx2    tot
  1  0.000  0.000  0.000  0.000  0.000  0.198  0.000  0.676  0.000  0.873
  2  0.000  0.000  0.007  0.000  0.000  0.000  0.000  0.000  0.000  0.007
tot  0.000  0.000  0.007  0.000  0.000  0.198  0.000  0.676  0.000  0.880
 
band   8 # energy   -8.20886753 # occ.  2.00000000
 
ion      s     py     pz     px    dxy    dyz    dz2    dxz    dx2    tot
  1  0.000  0.000  0.000  0.000  0.000  0.689  0.000  0.202  0.000  0.892
  2  0.000  0.000  0.000  0.000  0.000  0.000  0.000  0.000  0.000  0.001
tot  0.000  0.000  0.000  0.000  0.000  0.690  0.000  0.202  0.000  0.892
 
band   9 # energy   -8.09245621 # occ.  2.00000000
 
ion      s     py     pz     px    dxy    dyz    dz2    dxz    dx2    tot
  1  0.001  0.000  0.000  0.000  0.035  0.000  0.839  0.000  0.012  0.887
  2  0.008  0.000  0.000  0.000  0.000  0.000  0.001  0.000  0.000  0.009
tot  0.008  0.000  0.000  0.000  0.035  0.000  0.840  0.000  0.012  0.895
 
band  10 # energy   -5.85011806 # occ.  2.00000000
 
ion      s     py     pz     px    dxy    dyz    dz2    dxz    dx2    tot
  1  0.000  0.000  0.005  0.000  0.000  0.005  0.000  0.015  0.000  0.025
  2  0.000  0.000  0.385  0.000  0.000  0.000  0.000  0.000  0.000  0.385
tot  0.000  0.000  0.391  0.000  0.000  0.005  0.000  0.015  0.000  0.411
 
band  11 # energy   -5.61399454 # occ.  2.00000000
 
ion      s     py     pz     px    dxy    dyz    dz2    dxz    dx2    tot
  1  0.073  0.002  0.000  0.006  0.140  0.000  0.007  0.000  0.046  0.273
  2  0.022  0.062  0.000  0.190  0.001  0.000  0.001  0.000  0.000  0.276
tot  0.095  0.064  0.000  0.195  0.141  0.000  0.008  0.000  0.046  0.549
 
band  12 # energy   -4.98676525 # occ. -0.00000000
 
ion      s     py     pz     px    dxy    dyz    dz2    dxz    dx2    tot
  1  0.000  0.012  0.000  0.004  0.045  0.000  0.000  0.000  0.139  0.200
  2  0.000  0.285  0.000  0.094  0.000  0.000  0.000  0.000  0.001  0.379
tot  0.000  0.296  0.000  0.097  0.046  0.000  0.000  0.000  0.139  0.579
 
band  13 # energy   -2.65653534 # occ.  0.00000000
 
ion      s     py     pz     px    dxy    dyz    dz2    dxz    dx2    tot
  1  0.175  0.002  0.000  0.005  0.012  0.000  0.007  0.000  0.004  0.205
  2  0.081  0.031  0.000  0.092  0.001  0.000  0.006  0.000  0.000  0.210
tot  0.256  0.032  0.000  0.097  0.013  0.000  0.013  0.000  0.004  0.415
 
band  14 # energy   -0.14499781 # occ.  0.00000000
 
ion      s     py     pz     px    dxy    dyz    dz2    dxz    dx2    tot
  1  0.000  0.000  0.015  0.000  0.000  0.000  0.000  0.001  0.000  0.015
  2  0.000  0.000  0.088  0.000  0.000  0.001  0.000  0.003  0.000  0.092
tot  0.000  0.000  0.103  0.000  0.000  0.001  0.000  0.004  0.000  0.108
 
band  15 # energy   -0.02117475 # occ.  0.00000000
 
ion      s     py     pz     px    dxy    dyz    dz2    dxz    dx2    tot
  1  0.036  0.000  0.000  0.001  0.002  0.000  0.004  0.000  0.001  0.044
  2  0.001  0.001  0.000  0.004  0.004  0.000  0.010  0.000  0.001  0.021
tot  0.036  0.002  0.000  0.005  0.007  0.000  0.013  0.000  0.002  0.065
 
band  16 # energy    0.52689010 # occ.  0.00000000
 
ion      s     py     pz     px    dxy    dyz    dz2    dxz    dx2    tot
  1  0.001  0.000  0.000  0.001  0.001  0.000  0.000  0.000  0.000  0.004
  2  0.000  0.000  0.000  0.001  0.002  0.000  0.000  0.000  0.001  0.005
tot  0.001  0.001  0.000  0.002  0.003  0.000  0.000  0.000  0.001  0.008
 

 k-point    4 :    0.23076923 0.00000000 0.00000000     weight = 0.01183432

band   1 # energy  -59.50469731 # occ.  2.00000000
 
ion      s     py     pz     px    dxy    dyz    dz2    dxz    dx2    tot
  1  0.000  0.002  0.000  0.992  0.000  0.000  0.000  0.000  0.000  0.995
  2  0.000  0.000  0.000  0.000  0.000  0.000  0.000  0.000  0.000  0.000
tot  0.000  0.002  0.000  0.992  0.000  0.000  0.000  0.000  0.000  0.995
 
band   2 # energy  -59.50332368 # occ.  2.00000000
 
ion      s     py     pz     px    dxy    dyz    dz2    dxz    dx2    tot
  1  0.000  0.992  0.000  0.002  0.000  0.000  0.000  0.000  0.000  0.995
  2  0.000  0.000  0.000  0.000  0.000  0.000  0.000  0.000  0.000  0.000
tot  0.000  0.992  0.000  0.002  0.000  0.000  0.000  0.000  0.000  0.995
 
band   3 # energy  -59.40191268 # occ.  2.00000000
 
ion      s     py     pz     px    dxy    dyz    dz2    dxz    dx2    tot
  1  0.000  0.000  0.995  0.000  0.000  0.000  0.000  0.000  0.000  0.995
  2  0.000  0.000  0.000  0.000  0.000  0.000  0.000  0.000  0.000  0.000
tot  0.000  0.000  0.995  0.000  0.000  0.000  0.000  0.000  0.000  0.995
 
band   4 # energy  -15.05834570 # occ.  2.00000000
 
ion      s     py     pz     px    dxy    dyz    dz2    dxz    dx2    tot
  1  0.009  0.000  0.000  0.001  0.004  0.000  0.005  0.000  0.001  0.021
  2  0.659  0.000  0.000  0.000  0.000  0.000  0.000  0.000  0.000  0.659
tot  0.668  0.000  0.000  0.001  0.004  0.000  0.006  0.000  0.001  0.680
 
band   5 # energy   -8.90483228 # occ.  2.00000000
 
ion      s     py     pz     px    dxy    dyz    dz2    dxz    dx2    tot
  1  0.009  0.000  0.000  0.001  0.438  0.000  0.090  0.000  0.142  0.681
  2  0.000  0.021  0.000  0.068  0.001  0.000  0.000  0.000  0.000  0.090
tot  0.009  0.021  0.000  0.069  0.439  0.000  0.090  0.000  0.142  0.771
 
band   6 # energy   -8.83758038 # occ.  2.00000000
 
ion      s     py     pz     px    dxy    dyz    dz2    dxz    dx2    tot
  1  0.000  0.001  0.000  0.000  0.180  0.000  0.000  0.000  0.556  0.738
  2  0.000  0.056  0.000  0.017  0.000  0.000  0.000  0.000  0.001  0.074
tot  0.000  0.057  0.000  0.017  0.181  0.000  0.000  0.000  0.557  0.812
 
band   7 # energy   -8.27887637 # occ.  2.00000000
 
ion      s     py     pz     px    dxy    dyz    dz2    dxz    dx2    tot
  1  0.000  0.000  0.000  0.000  0.000  0.202  0.000  0.655  0.000  0.857
  2  0.000  0.000  0.012  0.000  0.000  0.000  0.000  0.000  0.000  0.013
tot  0.000  0.000  0.012  0.000  0.000  0.202  0.000  0.655  0.000  0.870
 
band   8 # energy   -8.21108516 # occ.  2.00000000
 
ion      s     py     pz     px    dxy    dyz    dz2    dxz    dx2    tot
  1  0.000  0.000  0.000  0.000  0.000  0.680  0.000  0.211  0.000  0.891
  2  0.000  0.000  0.000  0.000  0.000  0.001  0.000  0.000  0.000  0.001
tot  0.000  0.000  0.000  0.000  0.000  0.681  0.000  0.211  0.000  0.892
 
band   9 # energy   -8.10368890 # occ.  2.00000000
 
ion      s     py     pz     px    dxy    dyz    dz2    dxz    dx2    tot
  1  0.000  0.000  0.000  0.000  0.088  0.000  0.769  0.000  0.029  0.886
  2  0.008  0.000  0.000  0.000  0.000  0.000  0.001  0.000  0.000  0.010
tot  0.009  0.000  0.000  0.000  0.088  0.000  0.770  0.000  0.029  0.896
 
band  10 # energy   -6.17616130 # occ.  2.00000000
 
ion      s     py     pz     px    dxy    dyz    dz2    dxz    dx2    tot
  1  0.086  0.001  0.000  0.004  0.139  0.000  0.026  0.000  0.046  0.301
  2  0.019  0.054  0.000  0.163  0.001  0.000  0.001  0.000  0.000  0.238
tot  0.105  0.055  0.000  0.168  0.140  0.000  0.026  0.000  0.046  0.540
 
band  11 # energy   -5.71183388 # occ.  2.00000000
 
ion      s     py     pz     px    dxy    dyz    dz2    dxz    dx2    tot
  1  0.000  0.000  0.004  0.000  0.000  0.009  0.000  0.029  0.000  0.042
  2  0.000  0.000  0.391  0.000  0.000  0.000  0.000  0.000  0.000  0.392
tot  0.000  0.000  0.396  0.000  0.000  0.009  0.000  0.029  0.000  0.434
 
band  12 # energy   -5.23194732 # occ. -0.00938623
 
ion      s     py     pz     px    dxy    dyz    dz2    dxz    dx2    tot
  1  0.000  0.013  0.000  0.004  0.040  0.000  0.000  0.000  0.123  0.180
  2  0.000  0.279  0.000  0.092  0.000  0.000  0.000  0.000  0.001  0.373
tot  0.000  0.292  0.000  0.096  0.041  0.000  0.000  0.000  0.124  0.553
 
band  13 # energy   -2.19350613 # occ.  0.00000000
 
ion      s     py     pz     px    dxy    dyz    dz2    dxz    dx2    tot
  1  0.164  0.003  0.000  0.008  0.008  0.000  0.009  0.000  0.003  0.193
  2  0.067  0.032  0.000  0.095  0.005  0.000  0.005  0.000  0.002  0.206
tot  0.230  0.034  0.000  0.103  0.013  0.000  0.014  0.000  0.004  0.399
 
band  14 # energy   -0.21263927 # occ.  0.00000000
 
ion      s     py     pz     px    dxy    dyz    dz2    dxz    dx2    tot
  1  0.000  0.000  0.025  0.000  0.000  0.001  0.000  0.002  0.000  0.027
  2  0.000  0.000  0.083  0.000  0.000  0.003  0.000  0.008  0.000  0.094
tot  0.000  0.000  0.108  0.000  0.000  0.003  0.000  0.010  0.000  0.122
 
band  15 # energy    0.11394295 # occ.  0.00000000
 
ion      s     py     pz     px    dxy    dyz    dz2    dxz    dx2    tot
  1  0.035  0.001  0.000  0.004  0.006  0.000  0.004  0.000  0.002  0.051
  2  0.004  0.004  0.000  0.013  0.010  0.000  0.006  0.000  0.003  0.041
tot  0.039  0.005  0.000  0.016  0.016  0.000  0.010  0.000  0.006  0.093
 
band  16 # energy    0.70840139 # occ.  0.00000000
 
ion      s     py     pz     px    dxy    dyz    dz2    dxz    dx2    tot
  1  0.015  0.007  0.000  0.020  0.014  0.000  0.002  0.000  0.005  0.062
  2  0.009  0.012  0.000  0.036  0.026  0.000  0.006  0.000  0.009  0.098
tot  0.024  0.019  0.000  0.056  0.040  0.000  0.008  0.000  0.013  0.160
 

 k-point    5 :    0.30769231 0.00000000 0.00000000     weight = 0.01183432

band   1 # energy  -59.50470948 # occ.  2.00000000
 
ion      s     py     pz     px    dxy    dyz    dz2    dxz    dx2    tot
  1  0.000  0.002  0.000  0.992  0.000  0.000  0.000  0.000  0.000  0.995
  2  0.000  0.000  0.000  0.000  0.000  0.000  0.000  0.000  0.000  0.000
tot  0.000  0.002  0.000  0.992  0.000  0.000  0.000  0.000  0.000  0.995
 
band   2 # energy  -59.50333533 # occ.  2.00000000
 
ion      s     py     pz     px    dxy    dyz    dz2    dxz    dx2    tot
  1  0.000  0.992  0.000  0.002  0.000  0.000  0.000  0.000  0.000  0.995
  2  0.000  0.000  0.000  0.000  0.000  0.000  0.000  0.000  0.000  0.000
tot  0.000  0.992  0.000  0.002  0.000  0.000  0.000  0.000  0.000  0.995
 
band   3 # energy  -59.40191212 # occ.  2.00000000
 
ion      s     py     pz     px    dxy    dyz    dz2    dxz    dx2    tot
  1  0.000  0.000  0.995  0.000  0.000  0.000  0.000  0.000  0.000  0.995
  2  0.000  0.000  0.000  0.000  0.000  0.000  0.000  0.000  0.000  0.000
tot  0.000  0.000  0.995  0.000  0.000  0.000  0.000  0.000  0.000  0.995
 
band   4 # energy  -15.01138129 # occ.  2.00000000
 
ion      s     py     pz     px    dxy    dyz    dz2    dxz    dx2    tot
  1  0.006  0.000  0.000  0.001  0.006  0.000  0.004  0.000  0.002  0.019
  2  0.665  0.000  0.000  0.000  0.000  0.000  0.000  0.000  0.000  0.666
tot  0.672  0.000  0.000  0.001  0.006  0.000  0.004  0.000  0.002  0.685
 
band   5 # energy   -8.83852633 # occ.  2.00000000
 
ion      s     py     pz     px    dxy    dyz    dz2    dxz    dx2    tot
  1  0.015  0.000  0.000  0.000  0.355  0.000  0.175  0.000  0.117  0.662
  2  0.001  0.022  0.000  0.071  0.001  0.000  0.000  0.000  0.000  0.094
tot  0.016  0.022  0.000  0.072  0.355  0.000  0.175  0.000  0.117  0.757
 
band   6 # energy   -8.76047887 # occ.  2.00000000
 
ion      s     py     pz     px    dxy    dyz    dz2    dxz    dx2    tot
  1  0.000  0.001  0.000  0.000  0.187  0.000  0.000  0.000  0.568  0.756
  2  0.000  0.050  0.000  0.015  0.000  0.000  0.000  0.000  0.001  0.067
tot  0.000  0.051  0.000  0.015  0.187  0.000  0.000  0.000  0.569  0.823
 
band   7 # energy   -8.31326536 # occ.  2.00000000
 
ion      s     py     pz     px    dxy    dyz    dz2    dxz    dx2    tot
  1  0.000  0.000  0.000  0.000  0.000  0.202  0.000  0.641  0.000  0.843
  2  0.000  0.000  0.018  0.000  0.000  0.000  0.000  0.000  0.000  0.018
tot  0.000  0.000  0.018  0.000  0.000  0.202  0.000  0.641  0.000  0.860
 
band   8 # energy   -8.21343108 # occ.  2.00000000
 
ion      s     py     pz     px    dxy    dyz    dz2    dxz    dx2    tot
  1  0.000  0.000  0.000  0.000  0.000  0.677  0.000  0.214  0.000  0.890
  2  0.000  0.000  0.000  0.000  0.000  0.001  0.000  0.000  0.000  0.001
tot  0.000  0.000  0.000  0.000  0.000  0.677  0.000  0.214  0.000  0.891
 
band   9 # energy   -8.13008066 # occ.  2.00000000
 
ion      s     py     pz     px    dxy    dyz    dz2    dxz    dx2    tot
  1  0.000  0.000  0.000  0.000  0.184  0.000  0.638  0.000  0.061  0.883
  2  0.009  0.000  0.000  0.001  0.000  0.000  0.001  0.000  0.000  0.012
tot  0.009  0.000  0.000  0.001  0.184  0.000  0.639  0.000  0.061  0.895
 
band  10 # energy   -6.66461763 # occ.  2.00000000
 
ion      s     py     pz     px    dxy    dyz    dz2    dxz    dx2    tot
  1  0.091  0.001  0.000  0.003  0.121  0.000  0.073  0.000  0.040  0.329
  2  0.013  0.048  0.000  0.146  0.001  0.000  0.000  0.000  0.000  0.208
tot  0.103  0.049  0.000  0.149  0.122  0.000  0.074  0.000  0.040  0.537
 
band  11 # energy   -5.55942882 # occ.  2.00000001
 
ion      s     py     pz     px    dxy    dyz    dz2    dxz    dx2    tot
  1  0.000  0.000  0.003  0.000  0.000  0.013  0.000  0.041  0.000  0.058
  2  0.000  0.000  0.401  0.000  0.000  0.000  0.000  0.000  0.000  0.401
tot  0.000  0.000  0.404  0.000  0.000  0.013  0.000  0.041  0.000  0.459
 
band  12 # energy   -5.47931279 # occ.  2.00056912
 
ion      s     py     pz     px    dxy    dyz    dz2    dxz    dx2    tot
  1  0.000  0.013  0.000  0.005  0.035  0.000  0.000  0.000  0.105  0.157
  2  0.000  0.277  0.000  0.092  0.000  0.000  0.000  0.000  0.001  0.370
tot  0.000  0.291  0.000  0.096  0.035  0.000  0.000  0.000  0.106  0.527
 
band  13 # energy   -1.92742467 # occ.  0.00000000
 
ion      s     py     pz     px    dxy    dyz    dz2    dxz    dx2    tot
  1  0.160  0.003  0.000  0.010  0.008  0.000  0.008  0.000  0.003  0.191
  2  0.052  0.027  0.000  0.080  0.011  0.000  0.005  0.000  0.004  0.178
tot  0.212  0.030  0.000  0.090  0.019  0.000  0.013  0.000  0.006  0.370
 
band  14 # energy   -0.36955748 # occ.  0.00000000
 
ion      s     py     pz     px    dxy    dyz    dz2    dxz    dx2    tot
  1  0.000  0.000  0.035  0.000  0.000  0.001  0.000  0.003  0.000  0.039
  2  0.000  0.000  0.058  0.000  0.000  0.005  0.000  0.015  0.000  0.077
tot  0.000  0.000  0.093  0.000  0.000  0.006  0.000  0.018  0.000  0.116
 
band  15 # energy    0.34661835 # occ.  0.00000000
 
ion      s     py     pz     px    dxy    dyz    dz2    dxz    dx2    tot
  1  0.024  0.001  0.000  0.003  0.006  0.000  0.006  0.000  0.002  0.041
  2  0.008  0.008  0.000  0.025  0.009  0.000  0.005  0.000  0.003  0.058
tot  0.032  0.009  0.000  0.028  0.015  0.000  0.011  0.000  0.005  0.100
 
band  16 # energy    1.05232221 # occ.  0.00000000
 
ion      s     py     pz     px    dxy    dyz    dz2    dxz    dx2    tot
  1  0.001  0.000  0.004  0.001  0.001  0.000  0.000  0.000  0.000  0.008
  2  0.001  0.001  0.000  0.004  0.001  0.001  0.000  0.002  0.000  0.010
tot  0.002  0.002  0.004  0.005  0.002  0.001  0.001  0.002  0.001  0.018
 

 k-point    6 :    0.38461538 0.00000000 0.00000000     weight = 0.01183432

band   1 # energy  -59.50472046 # occ.  2.00000000
 
ion      s     py     pz     px    dxy    dyz    dz2    dxz    dx2    tot
  1  0.000  0.003  0.000  0.991  0.000  0.000  0.000  0.000  0.000  0.995
  2  0.000  0.000  0.000  0.000  0.000  0.000  0.000  0.000  0.000  0.000
tot  0.000  0.003  0.000  0.991  0.000  0.000  0.000  0.000  0.000  0.995
 
band   2 # energy  -59.50335824 # occ.  2.00000000
 
ion      s     py     pz     px    dxy    dyz    dz2    dxz    dx2    tot
  1  0.000  0.991  0.000  0.003  0.000  0.000  0.000  0.000  0.000  0.995
  2  0.000  0.000  0.000  0.000  0.000  0.000  0.000  0.000  0.000  0.000
tot  0.000  0.991  0.000  0.003  0.000  0.000  0.000  0.000  0.000  0.995
 
band   3 # energy  -59.40191038 # occ.  2.00000000
 
ion      s     py     pz     px    dxy    dyz    dz2    dxz    dx2    tot
  1  0.000  0.000  0.995  0.000  0.000  0.000  0.000  0.000  0.000  0.995
  2  0.000  0.000  0.000  0.000  0.000  0.000  0.000  0.000  0.000  0.000
tot  0.000  0.000  0.995  0.000  0.000  0.000  0.000  0.000  0.000  0.995
 
band   4 # energy  -14.97159027 # occ.  2.00000000
 
ion      s     py     pz     px    dxy    dyz    dz2    dxz    dx2    tot
  1  0.004  0.001  0.000  0.002  0.008  0.000  0.002  0.000  0.003  0.018
  2  0.671  0.000  0.000  0.000  0.000  0.000  0.000  0.000  0.000  0.671