<?xml version="1.0" encoding="ISO-8859-1"?>
<modeling>
 <generator>
  <i name="program" type="string">vasp </i>
  <i name="version" type="string">5.4.1  </i>
  <i name="subversion" type="string">05Feb16 (build Sep 02 2018 21:45:25) complex                          parallel </i>
  <i name="platform" type="string">IFC91_ompi </i>
  <i name="date" type="string">2018 09 04 </i>
  <i name="time" type="string">02:42:48 </i>
 </generator>
 <incar>
  <i type="string" name="PREC">accurate</i>
  <i type="string" name="ALGO"> Fast</i>
  <i type="int" name="ICHARG">     1</i>
  <i type="int" name="NELM">   100</i>
  <i type="int" name="IBRION">    -1</i>
  <i name="EDIFF">      0.00001050</i>
  <i name="EDIFFG">     -0.00100000</i>
  <i type="int" name="NSW">     0</i>
  <i type="int" name="ISIF">     2</i>
  <i name="ENCUT">    520.00000000</i>
  <i type="int" name="NEDOS">  1000</i>
  <i type="string" name="LREAL"> Auto</i>
  <i type="int" name="ISMEAR">     1</i>
  <i name="SIGMA">      0.05000000</i>
  <i type="logical" name="LWAVE"> T  </i>
  <i type="logical" name="LORBIT"> F  </i>
  <v type="int" name="KPOINT_BSE">    -1     0     0     0</v>
  <i type="int" name="NELM">   100</i>
 </incar>
 <kpoints>
  <generation param="Gamma">
   <v type="int" name="divisions">      13       13        1 </v>
   <v name="usershift">      0.00000000       0.00000000       0.00000000 </v>
   <v name="genvec1">      0.07692308      -0.00000000       0.00000000 </v>
   <v name="genvec2">      0.00000000       0.07692308       0.00000000 </v>
   <v name="genvec3">      0.00000000       0.00000000       1.00000000 </v>
   <v name="shift">      0.00000000       0.00000000       0.00000000 </v>
  </generation>
  <varray name="kpointlist" >
   <v>       0.00000000       0.00000000       0.00000000 </v>
   <v>       0.07692308       0.00000000       0.00000000 </v>
   <v>       0.15384615       0.00000000       0.00000000 </v>
   <v>       0.23076923       0.00000000       0.00000000 </v>
   <v>       0.30769231       0.00000000       0.00000000 </v>
   <v>       0.38461538       0.00000000       0.00000000 </v>
   <v>       0.46153846       0.00000000       0.00000000 </v>
   <v>       0.00000000       0.07692308       0.00000000 </v>
   <v>       0.07692308       0.07692308       0.00000000 </v>
   <v>       0.15384615       0.07692308       0.00000000 </v>
   <v>       0.23076923       0.07692308       0.00000000 </v>
   <v>       0.30769231       0.07692308       0.00000000 </v>
   <v>       0.38461538       0.07692308       0.00000000 </v>
   <v>       0.46153846       0.07692308       0.00000000 </v>
   <v>      -0.46153846       0.07692308       0.00000000 </v>
   <v>      -0.38461538       0.07692308       0.00000000 </v>
   <v>      -0.30769231       0.07692308       0.00000000 </v>
   <v>      -0.23076923       0.07692308       0.00000000 </v>
   <v>      -0.15384615       0.07692308       0.00000000 </v>
   <v>      -0.07692308       0.07692308       0.00000000 </v>
   <v>       0.00000000       0.15384615       0.00000000 </v>
   <v>       0.07692308       0.15384615       0.00000000 </v>
   <v>       0.15384615       0.15384615       0.00000000 </v>
   <v>       0.23076923       0.15384615       0.00000000 </v>
   <v>       0.30769231       0.15384615       0.00000000 </v>
   <v>       0.38461538       0.15384615       0.00000000 </v>
   <v>       0.46153846       0.15384615       0.00000000 </v>
   <v>      -0.46153846       0.15384615       0.00000000 </v>
   <v>      -0.38461538       0.15384615       0.00000000 </v>
   <v>      -0.30769231       0.15384615       0.00000000 </v>
   <v>      -0.23076923       0.15384615       0.00000000 </v>
   <v>      -0.15384615       0.15384615       0.00000000 </v>
   <v>      -0.07692308       0.15384615       0.00000000 </v>
   <v>       0.00000000       0.23076923       0.00000000 </v>
   <v>       0.07692308       0.23076923       0.00000000 </v>
   <v>       0.15384615       0.23076923       0.00000000 </v>
   <v>       0.23076923       0.23076923       0.00000000 </v>
   <v>       0.30769231       0.23076923       0.00000000 </v>
   <v>       0.38461538       0.23076923       0.00000000 </v>
   <v>       0.46153846       0.23076923       0.00000000 </v>
   <v>      -0.46153846       0.23076923       0.00000000 </v>
   <v>      -0.38461538       0.23076923       0.00000000 </v>
   <v>      -0.30769231       0.23076923       0.00000000 </v>
   <v>      -0.23076923       0.23076923       0.00000000 </v>
   <v>      -0.15384615       0.23076923       0.00000000 </v>
   <v>      -0.07692308       0.23076923       0.00000000 </v>
   <v>       0.00000000       0.30769231       0.00000000 </v>
   <v>       0.07692308       0.30769231       0.00000000 </v>
   <v>       0.15384615       0.30769231       0.00000000 </v>
   <v>       0.23076923       0.30769231       0.00000000 </v>
   <v>       0.30769231       0.30769231       0.00000000 </v>
   <v>       0.38461538       0.30769231       0.00000000 </v>
   <v>       0.46153846       0.30769231       0.00000000 </v>
   <v>      -0.46153846       0.30769231       0.00000000 </v>
   <v>      -0.38461538       0.30769231       0.00000000 </v>
   <v>      -0.30769231       0.30769231       0.00000000 </v>
   <v>      -0.23076923       0.30769231       0.00000000 </v>
   <v>      -0.15384615       0.30769231       0.00000000 </v>
   <v>      -0.07692308       0.30769231       0.00000000 </v>
   <v>       0.00000000       0.38461538       0.00000000 </v>
   <v>       0.07692308       0.38461538       0.00000000 </v>
   <v>       0.15384615       0.38461538       0.00000000 </v>
   <v>       0.23076923       0.38461538       0.00000000 </v>
   <v>       0.30769231       0.38461538       0.00000000 </v>
   <v>       0.38461538       0.38461538       0.00000000 </v>
   <v>       0.46153846       0.38461538       0.00000000 </v>
   <v>      -0.46153846       0.38461538       0.00000000 </v>
   <v>      -0.38461538       0.38461538       0.00000000 </v>
   <v>      -0.30769231       0.38461538       0.00000000 </v>
   <v>      -0.23076923       0.38461538       0.00000000 </v>
   <v>      -0.15384615       0.38461538       0.00000000 </v>
   <v>      -0.07692308       0.38461538       0.00000000 </v>
   <v>       0.00000000       0.46153846       0.00000000 </v>
   <v>       0.07692308       0.46153846       0.00000000 </v>
   <v>       0.15384615       0.46153846       0.00000000 </v>
   <v>       0.23076923       0.46153846       0.00000000 </v>
   <v>       0.30769231       0.46153846       0.00000000 </v>
   <v>       0.38461538       0.46153846       0.00000000 </v>
   <v>       0.46153846       0.46153846       0.00000000 </v>
   <v>      -0.46153846       0.46153846       0.00000000 </v>
   <v>      -0.38461538       0.46153846       0.00000000 </v>
   <v>      -0.30769231       0.46153846       0.00000000 </v>
   <v>      -0.23076923       0.46153846       0.00000000 </v>
   <v>      -0.15384615       0.46153846       0.00000000 </v>
   <v>      -0.07692308       0.46153846       0.00000000 </v>
  </varray>
  <varray name="weights" >
   <v>       0.00591716 </v>
   <v>       0.01183432 </v>
   <v>       0.01183432 </v>
   <v>       0.01183432 </v>
   <v>       0.01183432 </v>
   <v>       0.01183432 </v>
   <v>       0.01183432 </v>
   <v>       0.01183432 </v>
   <v>       0.01183432 </v>
   <v>       0.01183432 </v>
   <v>       0.01183432 </v>
   <v>       0.01183432 </v>
   <v>       0.01183432 </v>
   <v>       0.01183432 </v>
   <v>       0.01183432 </v>
   <v>       0.01183432 </v>
   <v>       0.01183432 </v>
   <v>       0.01183432 </v>
   <v>       0.01183432 </v>
   <v>       0.01183432 </v>
   <v>       0.01183432 </v>
   <v>       0.01183432 </v>
   <v>       0.01183432 </v>
   <v>       0.01183432 </v>
   <v>       0.01183432 </v>
   <v>       0.01183432 </v>
   <v>       0.01183432 </v>
   <v>       0.01183432 </v>
   <v>       0.01183432 </v>
   <v>       0.01183432 </v>
   <v>       0.01183432 </v>
   <v>       0.01183432 </v>
   <v>       0.01183432 </v>
   <v>       0.01183432 </v>
   <v>       0.01183432 </v>
   <v>       0.01183432 </v>
   <v>       0.01183432 </v>
   <v>       0.01183432 </v>
   <v>       0.01183432 </v>
   <v>       0.01183432 </v>
   <v>       0.01183432 </v>
   <v>       0.01183432 </v>
   <v>       0.01183432 </v>
   <v>       0.01183432 </v>
   <v>       0.01183432 </v>
   <v>       0.01183432 </v>
   <v>       0.01183432 </v>
   <v>       0.01183432 </v>
   <v>       0.01183432 </v>
   <v>       0.01183432 </v>
   <v>       0.01183432 </v>
   <v>       0.01183432 </v>
   <v>       0.01183432 </v>
   <v>       0.01183432 </v>
   <v>       0.01183432 </v>
   <v>       0.01183432 </v>
   <v>       0.01183432 </v>
   <v>       0.01183432 </v>
   <v>       0.01183432 </v>
   <v>       0.01183432 </v>
   <v>       0.01183432 </v>
   <v>       0.01183432 </v>
   <v>       0.01183432 </v>
   <v>       0.01183432 </v>
   <v>       0.01183432 </v>
   <v>       0.01183432 </v>
   <v>       0.01183432 </v>
   <v>       0.01183432 </v>
   <v>       0.01183432 </v>
   <v>       0.01183432 </v>
   <v>       0.01183432 </v>
   <v>       0.01183432 </v>
   <v>       0.01183432 </v>
   <v>       0.01183432 </v>
   <v>       0.01183432 </v>
   <v>       0.01183432 </v>
   <v>       0.01183432 </v>
   <v>       0.01183432 </v>
   <v>       0.01183432 </v>
   <v>       0.01183432 </v>
   <v>       0.01183432 </v>
   <v>       0.01183432 </v>
   <v>       0.01183432 </v>
   <v>       0.01183432 </v>
   <v>       0.01183432 </v>
  </varray>
 </kpoints>
 <parameters>
  <separator name="general" >
   <i type="string" name="SYSTEM">unknown system</i>
   <i type="logical" name="LCOMPAT"> F  </i>
  </separator>
  <separator name="electronic" >
   <i type="string" name="PREC">accura</i>
   <i name="ENMAX">    520.00000000</i>
   <i name="ENAUG">    532.84300000</i>
   <i name="EDIFF">      0.00001050</i>
   <i type="int" name="IALGO">    68</i>
   <i type="int" name="IWAVPR">    10</i>
   <i type="int" name="NBANDS">    16</i>
   <i name="NELECT">     23.00000000</i>
   <i type="int" name="TURBO">     0</i>
   <i type="int" name="IRESTART">     0</i>
   <i type="int" name="NREBOOT">     0</i>
   <i type="int" name="NMIN">     0</i>
   <i name="EREF">      0.00000000</i>
   <separator name="electronic smearing" >
    <i type="int" name="ISMEAR">     1</i>
    <i name="SIGMA">      0.05000000</i>
    <i name="KSPACING">      0.50000000</i>
    <i type="logical" name="KGAMMA"> T  </i>
   </separator>
   <separator name="electronic projectors" >
    <i type="logical" name="LREAL"> T  </i>
    <v name="ROPT">     -0.00025000     -0.00025000</v>
    <i type="int" name="LMAXPAW">  -100</i>
    <i type="int" name="LMAXMIX">     2</i>
    <i type="logical" name="NLSPLINE"> F  </i>
   </separator>
   <separator name="electronic startup" >
    <i type="int" name="ISTART">     0</i>
    <i type="int" name="ICHARG">     1</i>
    <i type="int" name="INIWAV">     1</i>
   </separator>
   <separator name="electronic spin" >
    <i type="int" name="ISPIN">     1</i>
    <i type="logical" name="LNONCOLLINEAR"> F  </i>
    <v name="MAGMOM">      1.00000000      1.00000000</v>
    <i name="NUPDOWN">     -1.00000000</i>
    <i type="logical" name="LSORBIT"> F  </i>
    <v name="SAXIS">      0.00000000      0.00000000      1.00000000</v>
    <i type="logical" name="LSPIRAL"> F  </i>
    <v name="QSPIRAL">      0.00000000      0.00000000      0.00000000</v>
    <i type="logical" name="LZEROZ"> F  </i>
   </separator>
   <separator name="electronic exchange-correlation" >
    <i type="logical" name="LASPH"> F  </i>
    <i type="logical" name="LMETAGGA"> F  </i>
   </separator>
   <separator name="electronic convergence" >
    <i type="int" name="NELM">   100</i>
    <i type="int" name="NELMDL">    -5</i>
    <i type="int" name="NELMIN">     2</i>
    <i name="ENINI">    520.00000000</i>
    <separator name="electronic convergence detail" >
     <i type="logical" name="LDIAG"> T  </i>
     <i type="logical" name="LSUBROT"> F  </i>
     <i name="WEIMIN">      0.00000000</i>
     <i name="EBREAK">      0.00000016</i>
     <i name="DEPER">      0.30000000</i>
     <i type="int" name="NRMM">     4</i>
     <i name="TIME">      0.40000000</i>
    </separator>
   </separator>
   <separator name="electronic mixer" >
    <i name="AMIX">      0.40000000</i>
    <i name="BMIX">      1.00000000</i>
    <i name="AMIN">      0.10000000</i>
    <i name="AMIX_MAG">      1.60000000</i>
    <i name="BMIX_MAG">      1.00000000</i>
    <separator name="electronic mixer details" >
     <i type="int" name="IMIX">     4</i>
     <i type="logical" name="MIXFIRST"> F  </i>
     <i type="int" name="MAXMIX">   -45</i>
     <i name="WC">    100.00000000</i>
     <i type="int" name="INIMIX">     1</i>
     <i type="int" name="MIXPRE">     1</i>
     <i type="int" name="MREMOVE">     5</i>
    </separator>
   </separator>
   <separator name="electronic dipolcorrection" >
    <i type="logical" name="LDIPOL"> F  </i>
    <i type="logical" name="LMONO"> F  </i>
    <i type="int" name="IDIPOL">     0</i>
    <i name="EPSILON">      1.00000000</i>
    <v name="DIPOL">   -100.00000000   -100.00000000   -100.00000000</v>
    <i name="EFIELD">      0.00000000</i>
   </separator>
  </separator>
  <separator name="grids" >
   <i type="int" name="NGX">    40</i>
   <i type="int" name="NGY">    40</i>
   <i type="int" name="NGZ">   504</i>
   <i type="int" name="NGXF">    80</i>
   <i type="int" name="NGYF">    80</i>
   <i type="int" name="NGZF">  1008</i>
   <i type="logical" name="ADDGRID"> F  </i>
  </separator>
  <separator name="ionic" >
   <i type="int" name="NSW">     0</i>
   <i type="int" name="IBRION">    -1</i>
   <i type="int" name="ISIF">     2</i>
   <i name="PSTRESS">      0.00000000</i>
   <i name="EDIFFG">     -0.00100000</i>
   <i type="int" name="NFREE">     0</i>
   <i name="POTIM">      0.50000000</i>
   <i name="SMASS">     -3.00000000</i>
   <i name="SCALEE">      1.00000000</i>
  </separator>
  <separator name="ionic md" >
   <i name="TEBEG">      0.00010000</i>
   <i name="TEEND">      0.00010000</i>
   <i type="int" name="NBLOCK">     1</i>
   <i type="int" name="KBLOCK">     1</i>
   <i type="int" name="NPACO">   256</i>
   <i name="APACO">     16.00000000</i>
  </separator>
  <separator name="symmetry" >
   <i type="int" name="ISYM">     2</i>
   <i name="SYMPREC">      0.00001000</i>
  </separator>
  <separator name="dos" >
   <i type="logical" name="LORBIT"> F  </i>
   <v name="RWIGS">     -1.00000000     -1.00000000</v>
   <i type="int" name="NEDOS">  1000</i>
   <i name="EMIN">     10.00000000</i>
   <i name="EMAX">    -10.00000000</i>
   <i name="EFERMI">      0.00000000</i>
  </separator>
  <separator name="writing" >
   <i type="int" name="NWRITE">     2</i>
   <i type="logical" name="LWAVE"> T  </i>
   <i type="logical" name="LCHARG"> T  </i>
   <i type="logical" name="LPARD"> F  </i>
   <i type="logical" name="LVTOT"> F  </i>
   <i type="logical" name="LVHAR"> F  </i>
   <i type="logical" name="LELF"> F  </i>
   <i type="logical" name="LOPTICS"> F  </i>
   <v name="STM">      0.00000000      0.00000000      0.00000000      0.00000000      0.00000000      0.00000000      0.00000000</v>
  </separator>
  <separator name="performance" >
   <i type="int" name="NPAR">     2</i>
   <i type="int" name="NSIM">     4</i>
   <i type="int" name="NBLK">    -1</i>
   <i type="logical" name="LPLANE"> T  </i>
   <i type="logical" name="LSCALAPACK"> T  </i>
   <i type="logical" name="LSCAAWARE"> F  </i>
   <i type="logical" name="LSCALU"> F  </i>
   <i type="logical" name="LASYNC"> F  </i>
   <i type="logical" name="LORBITALREAL"> F  </i>
  </separator>
  <separator name="miscellaneous" >
   <i type="int" name="IDIOT">     3</i>
   <i type="logical" name="LMUSIC"> F  </i>
   <v name="POMASS">    107.86800000    127.60000000</v>
   <v name="DARWINR">      0.00000000      0.00000000</v>
   <v name="DARWINV">      1.00000000      1.00000000</v>
   <i type="logical" name="LCORR"> T  </i>
  </separator>
  <i type="logical" name="GGA_COMPAT"> T  </i>
  <i type="logical" name="LBERRY"> F  </i>
  <i type="int" name="ICORELEVEL">     0</i>
  <i type="logical" name="LDAU"> F  </i>
  <i type="int" name="I_CONSTRAINED_M">     0</i>
  <separator name="electronic exchange-correlation" >
   <i type="string" name="GGA">--</i>
   <i type="int" name="VOSKOWN">     0</i>
   <i type="logical" name="LHFCALC"> F  </i>
   <i type="string" name="PRECFOCK"></i>
   <i type="logical" name="LSYMGRAD"> F  </i>
   <i type="logical" name="LHFONE"> F  </i>
   <i type="logical" name="LRHFCALC"> F  </i>
   <i type="logical" name="LTHOMAS"> F  </i>
   <i type="logical" name="LMODELHF"> F  </i>
   <i name="ENCUT4O">     -1.00000000</i>
   <i type="int" name="EXXOEP">     0</i>
   <i type="int" name="FOURORBIT">     0</i>
   <i name="AEXX">      0.00000000</i>
   <i name="HFALPHA">      0.00000000</i>
   <i name="MCALPHA">      0.00000000</i>
   <i name="ALDAX">      1.00000000</i>
   <i name="AGGAX">      1.00000000</i>
   <i name="ALDAC">      1.00000000</i>
   <i name="AGGAC">      1.00000000</i>
   <i type="int" name="NKREDX">     1</i>
   <i type="int" name="NKREDY">     1</i>
   <i type="int" name="NKREDZ">     1</i>
   <i type="logical" name="SHIFTRED"> F  </i>
   <i type="logical" name="ODDONLY"> F  </i>
   <i type="logical" name="EVENONLY"> F  </i>
   <i type="int" name="LMAXFOCK">     0</i>
   <i type="int" name="NMAXFOCKAE">     0</i>
   <i type="logical" name="LFOCKAEDFT"> F  </i>
   <i name="HFSCREEN">      0.00000000</i>
   <i name="HFSCREENC">      0.00000000</i>
   <i type="int" name="NBANDSGWLOW">     0</i>
  </separator>
  <separator name="vdW DFT" >
   <i type="logical" name="LUSE_VDW"> F  </i>
   <i name="Zab_VDW">     -0.84910000</i>
   <i name="PARAM1">      0.12340000</i>
   <i name="PARAM2">      1.00000000</i>
   <i name="PARAM3">      0.00000000</i>
  </separator>
  <separator name="model GW" >
   <i type="int" name="MODEL_GW">     0</i>
   <i name="MODEL_EPS0">    444.66324184</i>
   <i name="MODEL_ALPHA">      1.00000000</i>
  </separator>
  <separator name="linear response parameters" >
   <i type="logical" name="LEPSILON"> F  </i>
   <i type="logical" name="LRPA"> F  </i>
   <i type="logical" name="LNABLA"> F  </i>
   <i type="logical" name="LVEL"> F  </i>
   <i type="int" name="KINTER">     0</i>
   <i name="CSHIFT">      0.10000000</i>
   <i name="OMEGAMAX">     -1.00000000</i>
   <i name="DEG_THRESHOLD">      0.00200000</i>
  </separator>
  <separator name="orbital magnetization" >
   <i type="logical" name="NUCIND"> F  </i>
   <v name="MAGPOS">      0.00000000      0.00000000      0.00000000</v>
   <i type="logical" name="LNICSALL"> T  </i>
   <i type="logical" name="ORBITALMAG"> F  </i>
   <i type="logical" name="LMAGBLOCH"> F  </i>
   <i type="logical" name="LCHIMAG"> F  </i>
   <i type="logical" name="LGAUGE"> T  </i>
   <i type="int" name="MAGATOM">     0</i>
   <v name="MAGDIPOL">      0.00000000      0.00000000      0.00000000</v>
   <v name="AVECCONST">      0.00000000      0.00000000      0.00000000</v>
  </separator>
  <separator name="response functions" >
   <i type="logical" name="LADDER"> F  </i>
   <i type="logical" name="LFXC"> F  </i>
   <i type="logical" name="LHARTREE"> T  </i>
   <i type="int" name="IBSE">     0</i>
   <v type="int" name="KPOINT">    -1     0     0     0</v>
   <i type="logical" name="LTCTE"> F  </i>
   <i type="logical" name="LTETE"> F  </i>
   <i type="logical" name="LTRIPLET"> F  </i>
   <i type="logical" name="LFXCEPS"> F  </i>
   <i type="logical" name="LFXHEG"> F  </i>
   <i type="int" name="NATURALO">     0</i>
   <i type="logical" name="L2ORDER"> F  </i>
   <i type="logical" name="LUSEW"> F  </i>
   <i name="ENCUTGW">     -2.00000000</i>
   <i name="ENCUTGWSOFT">     -2.00000000</i>
   <i name="ENCUTLF">     -1.00000000</i>
   <i type="int" name="LMAXMP2">    -1</i>
   <i name="SCISSOR">      0.00000000</i>
   <i type="int" name="NOMEGA">     0</i>
   <i type="int" name="NOMEGAR">     0</i>
   <i type="int" name="NBANDSGW">    -1</i>
   <i type="int" name="NBANDSO">    -1</i>
   <i type="int" name="NBANDSV">    -1</i>
   <i type="int" name="NELM">   100</i>
   <i type="int" name="NELMHF">     1</i>
   <i type="int" name="DIM">     3</i>
   <i type="int" name="ANTIRES">     0</i>
   <i name="OMEGAMAX">    -30.00000000</i>
   <i name="OMEGAMIN">    -30.00000000</i>
   <i name="OMEGATL">   -200.00000000</i>
   <i type="int" name="OMEGAGRID">     0</i>
   <i name="CSHIFT">     -0.10000000</i>
   <i type="logical" name="SELFENERGY"> F  </i>
   <i type="logical" name="LSPECTRAL"> F  </i>
   <i type="logical" name="LSPECTRALGW"> F  </i>
   <i type="logical" name="LSINGLES"> F  </i>
   <i type="logical" name="LFERMIGW"> F  </i>
   <i type="logical" name="ODDONLYGW"> F  </i>
   <i type="logical" name="EVENONLYGW"> F  </i>
   <i type="int" name="NKREDLFX">     1</i>
   <i type="int" name="NKREDLFY">     1</i>
   <i type="int" name="NKREDLFZ">     1</i>
   <i type="int" name="MAXMEM">  1800</i>
   <i type="int" name="TELESCOPE">     0</i>
   <i type="int" name="TAUPAR">     1</i>
   <i type="int" name="OMEGAPAR">    -1</i>
   <i name="LAMBDA">      1.00000000</i>
  </separator>
  <separator name="External order field" >
   <i name="OFIELD_KAPPA">      0.00000000</i>
   <v name="OFIELD_K">      0.00000000      0.00000000      0.00000000</v>
   <i name="OFIELD_Q6_NEAR">      0.00000000</i>
   <i name="OFIELD_Q6_FAR">      0.00000000</i>
   <i name="OFIELD_A">      0.00000000</i>
  </separator>
 </parameters>
 <atominfo>
  <atoms>       2 </atoms>
  <types>       2 </types>
  <array name="atoms" >
   <dimension dim="1">ion</dimension>
   <field type="string">element</field>
   <field type="int">atomtype</field>
   <set>
    <rc><c>Ag</c><c>   1</c></rc>
    <rc><c>Te</c><c>   2</c></rc>
   </set>
  </array>
  <array name="atomtypes" >
   <dimension dim="1">type</dimension>
   <field type="int">atomspertype</field>
   <field type="string">element</field>
   <field>mass</field>
   <field>valence</field>
   <field type="string">pseudopotential</field>
   <set>
    <rc><c>   1</c><c>Ag</c><c>    107.86800000</c><c>     17.00000000</c><c>  PAW_PBE Ag_pv 09Dec2005               </c></rc>
    <rc><c>   1</c><c>Te</c><c>    127.60000000</c><c>      6.00000000</c><c>  PAW_PBE Te 08Apr2002                  </c></rc>
   </set>
  </array>
 </atominfo>
 <structure name="initialpos" >
  <crystal>
   <varray name="basis" >
    <v>       5.02497492       0.00000000       0.00000000 </v>
    <v>       2.51248746       4.35175593       0.00000000 </v>
    <v>       0.00000000       0.00000000      67.78155795 </v>
   </varray>
   <i name="volume">   1482.21080612 </i>
   <varray name="rec_basis" >
    <v>       0.19900597      -0.11489615       0.00000000 </v>
    <v>       0.00000000       0.22979230       0.00000000 </v>
    <v>       0.00000000       0.00000000       0.01475328 </v>
   </varray>
  </crystal>
  <varray name="positions" >
   <v>       0.99759950       0.33771153       0.24754869 </v>
   <v>       0.66395081       0.00516671       0.24766421 </v>
  </varray>
  <varray name="selective"  type="logical" >
   <v type="logical" >  T  T  T </v>
   <v type="logical" >  T  T  T </v>
  </varray>
  <nose>
   <v>      -3.00000000       0.00000000       0.00010000       0.00010000 </v>
  </nose>
 </structure>
 <calculation>
  <scstep>
   <time name="dav">    9.19    9.21</time>
   <time name="total">    9.37    9.40</time>
   <energy>
    <i name="alphaZ">      1.90658155 </i>
    <i name="ewald">   9950.14567984 </i>
    <i name="hartreedc"> -12878.93385728 </i>
    <i name="XCdc">     58.20443847 </i>
    <i name="pawpsdc">   2866.05710944 </i>
    <i name="pawaedc">  -2798.47587809 </i>
    <i name="eentropy">      0.00033986 </i>
    <i name="bandstr">   -351.66106675 </i>
    <i name="atom">   3284.29315156 </i>
    <i name="e_fr_energy">    131.53649860 </i>
    <i name="e_wo_entrp">    131.53615874 </i>
    <i name="e_0_energy">    131.53638531 </i>
   </energy>
  </scstep>
  <scstep>
   <time name="dav">    7.69    7.71</time>
   <time name="total">    7.69    7.71</time>
   <energy>
    <i name="e_fr_energy">     49.59958517 </i>
    <i name="e_wo_entrp">     49.59958614 </i>
    <i name="e_0_energy">     49.59958549 </i>
   </energy>
  </scstep>
  <scstep>
   <time name="dav">    7.79    7.81</time>
   <time name="total">    7.80    7.82</time>
   <energy>
    <i name="e_fr_energy">     -0.66811970 </i>
    <i name="e_wo_entrp">     -0.66791693 </i>
    <i name="e_0_energy">     -0.66805211 </i>
   </energy>
  </scstep>
  <scstep>
   <time name="dav">    5.44    5.45</time>
   <time name="total">    5.44    5.46</time>
   <energy>
    <i name="e_fr_energy">     -4.95982389 </i>
    <i name="e_wo_entrp">     -4.95729638 </i>
    <i name="e_0_energy">     -4.95898138 </i>
   </energy>
  </scstep>
  <scstep>
   <time name="dav">    6.72    6.74</time>
   <time name="total">    7.00    7.02</time>
   <energy>
    <i name="e_fr_energy">     -5.03384115 </i>
    <i name="e_wo_entrp">     -5.03114280 </i>
    <i name="e_0_energy">     -5.03294170 </i>
   </energy>
  </scstep>
  <scstep>
   <time name="diag">    0.82    0.82</time>
   <time name="diis">    4.28    4.29</time>
   <time name="orth">    0.04    0.04</time>
   <time name="total">    5.54    5.55</time>
   <energy>
    <i name="e_fr_energy">     -4.83989891 </i>
    <i name="e_wo_entrp">     -4.83857727 </i>
    <i name="e_0_energy">     -4.83945836 </i>
   </energy>
  </scstep>
  <scstep>
   <time name="diag">    0.82    0.82</time>
   <time name="diis">    4.50    4.51</time>
   <time name="orth">    0.04    0.04</time>
   <time name="total">    5.75    5.77</time>
   <energy>
    <i name="e_fr_energy">     -4.80379875 </i>
    <i name="e_wo_entrp">     -4.80331947 </i>
    <i name="e_0_energy">     -4.80363899 </i>
   </energy>
  </scstep>
  <scstep>
   <time name="diag">    0.82    0.82</time>
   <time name="diis">    4.28    4.29</time>
   <time name="orth">    0.04    0.04</time>
   <time name="total">    5.52    5.54</time>
   <energy>
    <i name="e_fr_energy">     -4.79869077 </i>
    <i name="e_wo_entrp">     -4.79827143 </i>
    <i name="e_0_energy">     -4.79855099 </i>
   </energy>
  </scstep>
  <scstep>
   <time name="diag">    0.82    0.82</time>
   <time name="diis">    4.51    4.52</time>
   <time name="orth">    0.04    0.04</time>
   <time name="total">    5.74    5.76</time>
   <energy>
    <i name="e_fr_energy">     -4.79447206 </i>
    <i name="e_wo_entrp">     -4.79401227 </i>
    <i name="e_0_energy">     -4.79431879 </i>
   </energy>
  </scstep>
  <scstep>
   <time name="diag">    0.89    0.89</time>
   <time name="diis">    4.46    4.47</time>
   <time name="orth">    0.04    0.04</time>
   <time name="total">    5.79    5.81</time>
   <energy>
    <i name="e_fr_energy">     -4.79319565 </i>
    <i name="e_wo_entrp">     -4.79270375 </i>
    <i name="e_0_energy">     -4.79303168 </i>
   </energy>
  </scstep>
  <scstep>
   <time name="diag">    0.81    0.81</time>
   <time name="diis">    4.74    4.75</time>
   <time name="orth">    0.04    0.04</time>
   <time name="total">    5.96    5.98</time>
   <energy>
    <i name="e_fr_energy">     -4.79323091 </i>
    <i name="e_wo_entrp">     -4.79275957 </i>
    <i name="e_0_energy">     -4.79307380 </i>
   </energy>
  </scstep>
  <scstep>
   <time name="diag">    0.82    0.82</time>
   <time name="diis">    4.46    4.47</time>
   <time name="orth">    0.04    0.04</time>
   <time name="total">    5.69    5.71</time>
   <energy>
    <i name="e_fr_energy">     -4.79316288 </i>
    <i name="e_wo_entrp">     -4.79270031 </i>
    <i name="e_0_energy">     -4.79300869 </i>
   </energy>
  </scstep>
  <scstep>
   <time name="diag">    0.82    0.82</time>
   <time name="diis">    3.48    3.49</time>
   <time name="orth">    0.04    0.04</time>
   <time name="total">    4.72    4.74</time>
   <energy>
    <i name="e_fr_energy">     -4.79318226 </i>
    <i name="e_wo_entrp">     -4.79271634 </i>
    <i name="e_0_energy">     -4.79302695 </i>
   </energy>
  </scstep>
  <scstep>
   <time name="diag">    0.96    0.97</time>
   <time name="diis">    3.18    3.19</time>
   <time name="orth">    0.04    0.04</time>
   <time name="total">    4.57    4.58</time>
   <energy>
    <i name="e_fr_energy">     -4.79323225 </i>
    <i name="e_wo_entrp">     -4.79277380 </i>
    <i name="e_0_energy">     -4.79307944 </i>
   </energy>
  </scstep>
  <scstep>
   <time name="diag">    0.81    0.81</time>
   <time name="diis">    3.13    3.14</time>
   <time name="orth">    0.04    0.04</time>
   <time name="total">    4.09    4.10</time>
   <energy>
    <i name="alphaZ">      1.90658155 </i>
    <i name="ewald">   9950.14567984 </i>
    <i name="hartreedc"> -12863.51381537 </i>
    <i name="XCdc">     57.81965157 </i>
    <i name="pawpsdc">   2975.81964819 </i>
    <i name="pawaedc">  -2909.43138031 </i>
    <i name="eentropy">     -0.00045753 </i>
    <i name="bandstr">   -501.83229993 </i>
    <i name="atom">   3284.29315156 </i>
    <i name="e_fr_energy">     -4.79324043 </i>
    <i name="e_wo_entrp">     -4.79278290 </i>
    <i name="e_0_energy">     -4.79308792 </i>
   </energy>
  </scstep>
  <structure>
   <crystal>
    <varray name="basis" >
     <v>       5.02497492       0.00000000       0.00000000 </v>
     <v>       2.51248746       4.35175593       0.00000000 </v>
     <v>       0.00000000       0.00000000      67.78155795 </v>
    </varray>
    <i name="volume">   1482.21080612 </i>
    <varray name="rec_basis" >
     <v>       0.19900597      -0.11489615       0.00000000 </v>
     <v>       0.00000000       0.22979230       0.00000000 </v>
     <v>       0.00000000       0.00000000       0.01475328 </v>
    </varray>
   </crystal>
   <varray name="positions" >
    <v>       0.99759950       0.33771153       0.24754869 </v>
    <v>       0.66395081       0.00516671       0.24766421 </v>
   </varray>
  </structure>
  <varray name="forces" >
   <v>       0.00191568       0.00519739       0.00866877 </v>
   <v>      -0.00191568      -0.00519739      -0.00866877 </v>
  </varray>
  <varray name="stress" >
   <v>      -3.98534476      -0.00124701      -0.00089293 </v>
   <v>      -0.00124702      -3.99013354       0.00221336 </v>
   <v>      -0.00089294       0.00221335      -0.08698127 </v>
  </varray>
  <energy>
   <i name="e_fr_energy">     -4.79324043 </i>
   <i name="e_wo_entrp">     -4.79308792 </i>
   <i name="e_0_energy">     -0.00045753 </i>
  </energy>
  <time name="totalsc">  104.64  108.36</time>
  <eigenvalues>
   <array>
    <dimension dim="1">band</dimension>
    <dimension dim="2">kpoint</dimension>
    <dimension dim="3">spin</dimension>
    <field>eigene</field>
    <field>occ</field>
    <set>
     <set comment="spin 1">
      <set comment="kpoint 1">
       <r>  -59.5047    1.0000 </r>
       <r>  -59.5033    1.0000 </r>
       <r>  -59.4019    1.0000 </r>
       <r>  -15.1425    1.0000 </r>
       <r>   -8.9653    1.0000 </r>
       <r>   -8.9637    1.0000 </r>
       <r>   -8.2081    1.0000 </r>
       <r>   -8.2062    1.0000 </r>
       <r>   -8.0876    1.0000 </r>
       <r>   -5.9802    1.0000 </r>
       <r>   -4.7362   -0.0000 </r>
       <r>   -4.7310   -0.0000 </r>
       <r>   -3.5180    0.0000 </r>
       <r>   -0.1687    0.0000 </r>
       <r>   -0.1538    0.0000 </r>
       <r>    0.3410    0.0000 </r>
      </set>
      <set comment="kpoint 2">
       <r>  -59.5047    1.0000 </r>
       <r>  -59.5033    1.0000 </r>
       <r>  -59.4019    1.0000 </r>
       <r>  -15.1317    1.0000 </r>
       <r>   -8.9601    1.0000 </r>
       <r>   -8.9486    1.0000 </r>
       <r>   -8.2175    1.0000 </r>
       <r>   -8.2073    1.0000 </r>
       <r>   -8.0885    1.0000 </r>
       <r>   -5.9459    1.0000 </r>
       <r>   -5.0505   -0.0000 </r>
       <r>   -4.8021   -0.0000 </r>
       <r>   -3.2013    0.0000 </r>
       <r>   -0.1473    0.0000 </r>
       <r>   -0.1254    0.0000 </r>
       <r>    0.3904    0.0000 </r>
      </set>
      <set comment="kpoint 3">
       <r>  -59.5047    1.0000 </r>
       <r>  -59.5033    1.0000 </r>
       <r>  -59.4019    1.0000 </r>
       <r>  -15.1016    1.0000 </r>
       <r>   -8.9426    1.0000 </r>
       <r>   -8.9043    1.0000 </r>
       <r>   -8.2440    1.0000 </r>
       <r>   -8.2089    1.0000 </r>
       <r>   -8.0925    1.0000 </r>
       <r>   -5.8501    1.0000 </r>
       <r>   -5.6140    1.0000 </r>
       <r>   -4.9868   -0.0000 </r>
       <r>   -2.6565    0.0000 </r>
       <r>   -0.1450    0.0000 </r>
       <r>   -0.0212    0.0000 </r>
       <r>    0.5269    0.0000 </r>
      </set>
      <set comment="kpoint 4">
       <r>  -59.5047    1.0000 </r>
       <r>  -59.5033    1.0000 </r>
       <r>  -59.4019    1.0000 </r>
       <r>  -15.0583    1.0000 </r>
       <r>   -8.9048    1.0000 </r>
       <r>   -8.8376    1.0000 </r>
       <r>   -8.2789    1.0000 </r>
       <r>   -8.2111    1.0000 </r>
       <r>   -8.1037    1.0000 </r>
       <r>   -6.1762    1.0000 </r>
       <r>   -5.7118    1.0000 </r>
       <r>   -5.2319   -0.0047 </r>
       <r>   -2.1935    0.0000 </r>
       <r>   -0.2126    0.0000 </r>
       <r>    0.1139    0.0000 </r>
       <r>    0.7084    0.0000 </r>
      </set>
      <set comment="kpoint 5">
       <r>  -59.5047    1.0000 </r>
       <r>  -59.5033    1.0000 </r>
       <r>  -59.4019    1.0000 </r>
       <r>  -15.0114    1.0000 </r>
       <r>   -8.8385    1.0000 </r>
       <r>   -8.7605    1.0000 </r>
       <r>   -8.3133    1.0000 </r>
       <r>   -8.2134    1.0000 </r>
       <r>   -8.1301    1.0000 </r>
       <r>   -6.6646    1.0000 </r>
       <r>   -5.5594    1.0000 </r>
       <r>   -5.4793    1.0003 </r>
       <r>   -1.9274    0.0000 </r>
       <r>   -0.3696    0.0000 </r>
       <r>    0.3466    0.0000 </r>
       <r>    1.0523    0.0000 </r>
      </set>
      <set comment="kpoint 6">
       <r>  -59.5047    1.0000 </r>
       <r>  -59.5034    1.0000 </r>
       <r>  -59.4019    1.0000 </r>
       <r>  -14.9716    1.0000 </r>
       <r>   -8.7435    1.0000 </r>
       <r>   -8.6904    1.0000 </r>
       <r>   -8.3400    1.0000 </r>
       <r>   -8.2154    1.0000 </r>
       <r>   -8.1821    1.0000 </r>
       <r>   -7.0293    1.0000 </r>
       <r>   -5.6786    1.0000 </r>
       <r>   -5.4271    1.0165 </r>
       <r>   -1.8302    0.0000 </r>
       <r>   -0.5457    0.0000 </r>
       <r>    0.7151    0.0000 </r>
       <r>    1.3957    0.0000 </r>
      </set>
      <set comment="kpoint 7">
       <r>  -59.5047    1.0000 </r>
       <r>  -59.5034    1.0000 </r>
       <r>  -59.4019    1.0000 </r>
       <r>  -14.9488    1.0000 </r>
       <r>   -8.6527    1.0000 </r>
       <r>   -8.6454    1.0000 </r>
       <r>   -8.3544    1.0000 </r>
       <r>   -8.2488    1.0000 </r>
       <r>   -8.2165    1.0000 </r>
       <r>   -7.2239    1.0000 </r>
       <r>   -5.7900    1.0000 </r>
       <r>   -5.3493    0.6584 </r>
       <r>   -1.8085    0.0000 </r>
       <r>   -0.6574    0.0000 </r>
       <r>    1.1652    0.0000 </r>
       <r>    1.6639    0.0000 </r>
      </set>
      <set comment="kpoint 8">
       <r>  -59.5047    1.0000 </r>
       <r>  -59.5033    1.0000 </r>
       <r>  -59.4019    1.0000 </r>
       <r>  -15.1318    1.0000 </r>
       <r>   -8.9589    1.0000 </r>
       <r>   -8.9499    1.0000 </r>
       <r>   -8.2161    1.0000 </r>
       <r>   -8.2086    1.0000 </r>
       <r>   -8.0885    1.0000 </r>
       <r>   -5.9460    1.0000 </r>
       <r>   -5.0471   -0.0000 </r>
       <r>   -4.8054   -0.0000 </r>
       <r>   -3.2012    0.0000 </r>
       <r>   -0.1472    0.0000 </r>
       <r>   -0.1254    0.0000 </r>
       <r>    0.3926    0.0000 </r>
      </set>
      <set comment="kpoint 9">
       <r>  -59.5047    1.0000 </r>
       <r>  -59.5033    1.0000 </r>
       <r>  -59.4019    1.0000 </r>
       <r>  -15.1317    1.0000 </r>
       <r>   -8.9602    1.0000 </r>
       <r>   -8.9485    1.0000 </r>
       <r>   -8.2177    1.0000 </r>
       <r>   -8.2071    1.0000 </r>
       <r>   -8.0885    1.0000 </r>
       <r>   -5.9459    1.0000 </r>
       <r>   -5.0510   -0.0000 </r>
       <r>   -4.8016   -0.0000 </r>
       <r>   -3.2014    0.0000 </r>
       <r>   -0.1473    0.0000 </r>
       <r>   -0.1253    0.0000 </r>
       <r>    0.3932    0.0000 </r>
      </set>
      <set comment="kpoint 10">
       <r>  -59.5047    1.0000 </r>
       <r>  -59.5033    1.0000 </r>
       <r>  -59.4019    1.0000 </r>
       <r>  -15.1112    1.0000 </r>
       <r>   -8.9496    1.0000 </r>
       <r>   -8.9179    1.0000 </r>
       <r>   -8.2361    1.0000 </r>
       <r>   -8.2080    1.0000 </r>
       <r>   -8.0909    1.0000 </r>
       <r>   -5.8808    1.0000 </r>
       <r>   -5.4533    1.0030 </r>
       <r>   -4.9388   -0.0000 </r>
       <r>   -2.7942    0.0000 </r>
       <r>   -0.1414    0.0000 </r>
       <r>   -0.0508    0.0000 </r>
       <r>    0.4816    0.0000 </r>
      </set>
      <set comment="kpoint 11">
       <r>  -59.5047    1.0000 </r>
       <r>  -59.5033    1.0000 </r>
       <r>  -59.4019    1.0000 </r>
       <r>  -15.0745    1.0000 </r>
       <r>   -8.9233    1.0000 </r>
       <r>   -8.8606    1.0000 </r>
       <r>   -8.2661    1.0000 </r>
       <r>   -8.2104    1.0000 </r>
       <r>   -8.0982    1.0000 </r>
       <r>   -5.9665    1.0000 </r>
       <r>   -5.7636    1.0000 </r>
       <r>   -5.1774   -0.0000 </r>
       <r>   -2.2941    0.0000 </r>
       <r>   -0.1753    0.0000 </r>
       <r>    0.0665    0.0000 </r>
       <r>    0.6353    0.0000 </r>
      </set>
      <set comment="kpoint 12">
       <r>  -59.5047    1.0000 </r>
       <r>  -59.5033    1.0000 </r>
       <r>  -59.4019    1.0000 </r>
       <r>  -15.0293    1.0000 </r>
       <r>   -8.8736    1.0000 </r>
       <r>   -8.7849    1.0000 </r>
       <r>   -8.2998    1.0000 </r>
       <r>   -8.2133    1.0000 </r>
       <r>   -8.1160    1.0000 </r>
       <r>   -6.4607    1.0000 </r>
       <r>   -5.6181    1.0000 </r>
       <r>   -5.4462    1.0052 </r>
       <r>   -1.9064    0.0000 </r>
       <r>   -0.2929    0.0000 </r>
       <r>    0.2275    0.0000 </r>
       <r>    0.8206    0.0000 </r>
      </set>
      <set comment="kpoint 13">
       <r>  -59.5047    1.0000 </r>
       <r>  -59.5033    1.0000 </r>
       <r>  -59.4019    1.0000 </r>
       <r>  -14.9858    1.0000 </r>
       <r>   -8.7967    1.0000 </r>
       <r>   -8.7043    1.0000 </r>
       <r>   -8.3294    1.0000 </r>
       <r>   -8.2161    1.0000 </r>
       <r>   -8.1529    1.0000 </r>
       <r>   -6.8716    1.0000 </r>
       <r>   -5.6862    1.0000 </r>
       <r>   -5.4750    1.0004 </r>
       <r>   -1.7124    0.0000 </r>
       <r>   -0.4622    0.0000 </r>
       <r>    0.5275    0.0000 </r>
       <r>    1.2469    0.0000 </r>
      </set>
      <set comment="kpoint 14">
       <r>  -59.5047    1.0000 </r>
       <r>  -59.5033    1.0000 </r>
       <r>  -59.4019    1.0000 </r>
       <r>  -14.9544    1.0000 </r>
       <r>   -8.7097    1.0000 </r>
       <r>   -8.6332    1.0000 </r>
       <r>   -8.3492    1.0000 </r>
       <r>   -8.2180    1.0000 </r>
       <r>   -8.2131    1.0000 </r>
       <r>   -7.1457    1.0000 </r>
       <r>   -5.8520    1.0000 </r>
       <r>   -5.3690    0.9136 </r>
       <r>   -1.6516    0.0000 </r>
       <r>   -0.6052    0.0000 </r>
       <r>    0.9486    0.0000 </r>
       <r>    1.5901    0.0000 </r>
      </set>
      <set comment="kpoint 15">
       <r>  -59.5047    1.0000 </r>
       <r>  -59.5034    1.0000 </r>
       <r>  -59.4019    1.0000 </r>
       <r>  -14.9430    1.0000 </r>
       <r>   -8.6708    1.0000 </r>
       <r>   -8.5932    1.0000 </r>
       <r>   -8.3561    1.0000 </r>
       <r>   -8.2545    1.0000 </r>
       <r>   -8.2188    1.0000 </r>
       <r>   -7.2414    1.0000 </r>
       <r>   -5.9114    1.0000 </r>
       <r>   -5.3297    0.3345 </r>
       <r>   -1.6410    0.0000 </r>
       <r>   -0.6602    0.0000 </r>
       <r>    1.3341    0.0000 </r>
       <r>    1.5468    0.0000 </r>
      </set>
      <set comment="kpoint 16">
       <r>  -59.5047    1.0000 </r>
       <r>  -59.5034    1.0000 </r>
       <r>  -59.4019    1.0000 </r>
       <r>  -14.9545    1.0000 </r>
       <r>   -8.7125    1.0000 </r>
       <r>   -8.6302    1.0000 </r>
       <r>   -8.3490    1.0000 </r>
       <r>   -8.2182    1.0000 </r>
       <r>   -8.2131    1.0000 </r>
       <r>   -7.1452    1.0000 </r>
       <r>   -5.8523    1.0000 </r>
       <r>   -5.3692    0.9159 </r>
       <r>   -1.6513    0.0000 </r>
       <r>   -0.6048    0.0000 </r>
       <r>    0.9483    0.0000 </r>
       <r>    1.5896    0.0000 </r>
      </set>
      <set comment="kpoint 17">
       <r>  -59.5047    1.0000 </r>
       <r>  -59.5034    1.0000 </r>
       <r>  -59.4019    1.0000 </r>
       <r>  -14.9860    1.0000 </r>
       <r>   -8.7988    1.0000 </r>
       <r>   -8.7021    1.0000 </r>
       <r>   -8.3289    1.0000 </r>
       <r>   -8.2165    1.0000 </r>
       <r>   -8.1529    1.0000 </r>
       <r>   -6.8703    1.0000 </r>
       <r>   -5.6870    1.0000 </r>
       <r>   -5.4754    1.0004 </r>
       <r>   -1.7116    0.0000 </r>
       <r>   -0.4615    0.0000 </r>
       <r>    0.5269    0.0000 </r>
       <r>    1.2481    0.0000 </r>
      </set>
      <set comment="kpoint 18">
       <r>  -59.5047    1.0000 </r>
       <r>  -59.5034    1.0000 </r>
       <r>  -59.4019    1.0000 </r>
       <r>  -15.0295    1.0000 </r>
       <r>   -8.8746    1.0000 </r>
       <r>   -8.7839    1.0000 </r>
       <r>   -8.2990    1.0000 </r>
       <r>   -8.2140    1.0000 </r>
       <r>   -8.1159    1.0000 </r>
       <r>   -6.4585    1.0000 </r>
       <r>   -5.6186    1.0000 </r>
       <r>   -5.4477    1.0046 </r>
       <r>   -1.9055    0.0000 </r>
       <r>   -0.2921    0.0000 </r>
       <r>    0.2265    0.0000 </r>
       <r>    0.8167    0.0000 </r>
      </set>
      <set comment="kpoint 19">
       <r>  -59.5047    1.0000 </r>
       <r>  -59.5033    1.0000 </r>
       <r>  -59.4019    1.0000 </r>
       <r>  -15.0747    1.0000 </r>
       <r>   -8.9235    1.0000 </r>
       <r>   -8.8605    1.0000 </r>
       <r>   -8.2650    1.0000 </r>
       <r>   -8.2114    1.0000 </r>
       <r>   -8.0982    1.0000 </r>
       <r>   -5.9633    1.0000 </r>
       <r>   -5.7641    1.0000 </r>
       <r>   -5.1799   -0.0000 </r>
       <r>   -2.2934    0.0000 </r>
       <r>   -0.1748    0.0000 </r>
       <r>    0.0658    0.0000 </r>
       <r>    0.5528    0.0000 </r>
      </set>
      <set comment="kpoint 20">
       <r>  -59.5047    1.0000 </r>
       <r>  -59.5033    1.0000 </r>
       <r>  -59.4019    1.0000 </r>
       <r>  -15.1113    1.0000 </r>
       <r>   -8.9488    1.0000 </r>
       <r>   -8.9188    1.0000 </r>
       <r>   -8.2345    1.0000 </r>
       <r>   -8.2094    1.0000 </r>
       <r>   -8.0909    1.0000 </r>
       <r>   -5.8811    1.0000 </r>
       <r>   -5.4491    1.0042 </r>
       <r>   -4.9425   -0.0000 </r>
       <r>   -2.7938    0.0000 </r>
       <r>   -0.1411    0.0000 </r>
       <r>   -0.0510    0.0000 </r>
       <r>    0.4824    0.0000 </r>
      </set>
      <set comment="kpoint 21">
       <r>  -59.5047    1.0000 </r>
       <r>  -59.5033    1.0000 </r>
       <r>  -59.4019    1.0000 </r>
       <r>  -15.1017    1.0000 </r>
       <r>   -8.9412    1.0000 </r>
       <r>   -8.9057    1.0000 </r>
       <r>   -8.2425    1.0000 </r>
       <r>   -8.2102    1.0000 </r>
       <r>   -8.0924    1.0000 </r>
       <r>   -5.8505    1.0000 </r>
       <r>   -5.6107    1.0000 </r>
       <r>   -4.9890   -0.0000 </r>
       <r>   -2.6568    0.0000 </r>
       <r>   -0.1447    0.0000 </r>
       <r>   -0.0218    0.0000 </r>
       <r>    0.5280    0.0000 </r>
      </set>
      <set comment="kpoint 22">
       <r>  -59.5047    1.0000 </r>
       <r>  -59.5033    1.0000 </r>
       <r>  -59.4019    1.0000 </r>
       <r>  -15.1113    1.0000 </r>
       <r>   -8.9489    1.0000 </r>
       <r>   -8.9187    1.0000 </r>
       <r>   -8.2347    1.0000 </r>
       <r>   -8.2093    1.0000 </r>
       <r>   -8.0909    1.0000 </r>
       <r>   -5.8811    1.0000 </r>
       <r>   -5.4497    1.0040 </r>
       <r>   -4.9420   -0.0000 </r>
       <r>   -2.7938    0.0000 </r>
       <r>   -0.1411    0.0000 </r>
       <r>   -0.0510    0.0000 </r>
       <r>    0.4810    0.0000 </r>
      </set>
      <set comment="kpoint 23">
       <r>  -59.5047    1.0000 </r>
       <r>  -59.5033    1.0000 </r>
       <r>  -59.4019    1.0000 </r>
       <r>  -15.1016    1.0000 </r>
       <r>   -8.9428    1.0000 </r>
       <r>   -8.9041    1.0000 </r>
       <r>   -8.2442    1.0000 </r>
       <r>   -8.2087    1.0000 </r>
       <r>   -8.0925    1.0000 </r>
       <r>   -5.8501    1.0000 </r>
       <r>   -5.6145    1.0000 </r>
       <r>   -4.9864   -0.0000 </r>
       <r>   -2.6565    0.0000 </r>
       <r>   -0.1450    0.0000 </r>
       <r>   -0.0211    0.0000 </r>
       <r>    0.5434    0.0000 </r>
      </set>
      <set comment="kpoint 24">
       <r>  -59.5047    1.0000 </r>
       <r>  -59.5033    1.0000 </r>
       <r>  -59.4019    1.0000 </r>
       <r>  -15.0745    1.0000 </r>
       <r>   -8.9234    1.0000 </r>
       <r>   -8.8605    1.0000 </r>
       <r>   -8.2662    1.0000 </r>
       <r>   -8.2103    1.0000 </r>
       <r>   -8.0982    1.0000 </r>
       <r>   -5.9667    1.0000 </r>
       <r>   -5.7636    1.0000 </r>
       <r>   -5.1774   -0.0000 </r>
       <r>   -2.2940    0.0000 </r>
       <r>   -0.1754    0.0000 </r>
       <r>    0.0666    0.0000 </r>
       <r>    0.6531    0.0000 </r>
      </set>
      <set comment="kpoint 25">
       <r>  -59.5047    1.0000 </r>
       <r>  -59.5033    1.0000 </r>
       <r>  -59.4019    1.0000 </r>
       <r>  -15.0357    1.0000 </r>
       <r>   -8.8874    1.0000 </r>
       <r>   -8.7908    1.0000 </r>
       <r>   -8.2944    1.0000 </r>
       <r>   -8.2139    1.0000 </r>
       <r>   -8.1113    1.0000 </r>
       <r>   -6.3637    1.0000 </r>
       <r>   -5.6390    1.0000 </r>
       <r>   -5.4739    1.0005 </r>
       <r>   -1.8423    0.0000 </r>
       <r>   -0.2635    0.0000 </r>
       <r>    0.1839    0.0000 </r>
       <r>    0.6484    0.0000 </r>
      </set>
      <set comment="kpoint 26">
       <r>  -59.5047    1.0000 </r>
       <r>  -59.5033    1.0000 </r>
       <r>  -59.4019    1.0000 </r>
       <r>  -14.9938    1.0000 </r>
       <r>   -8.8292    1.0000 </r>
       <r>   -8.7059    1.0000 </r>
       <r>   -8.3219    1.0000 </r>
       <r>   -8.2180    1.0000 </r>
       <r>   -8.1367    1.0000 </r>
       <r>   -6.7361    1.0000 </r>
       <r>   -5.7783    1.0000 </r>
       <r>   -5.5020    1.0000 </r>
       <r>   -1.4736    0.0000 </r>
       <r>   -0.4000    0.0000 </r>
       <r>    0.3809    0.0000 </r>
       <r>    0.9625    0.0000 </r>
      </set>
      <set comment="kpoint 27">
       <r>  -59.5047    1.0000 </r>
       <r>  -59.5033    1.0000 </r>
       <r>  -59.4019    1.0000 </r>
       <r>  -14.9585    1.0000 </r>
       <r>   -8.7534    1.0000 </r>
       <r>   -8.6232    1.0000 </r>
       <r>   -8.3431    1.0000 </r>
       <r>   -8.2217    1.0000 </r>
       <r>   -8.1776    1.0000 </r>
       <r>   -7.0312    1.0000 </r>
       <r>   -6.0190    1.0000 </r>
       <r>   -5.3837    1.0079 </r>
       <r>   -1.2873    0.0000 </r>
       <r>   -0.5352    0.0000 </r>
       <r>    0.7474    0.0000 </r>
       <r>    1.4451    0.0000 </r>
      </set>
      <set comment="kpoint 28">
       <r>  -59.5047    1.0000 </r>
       <r>  -59.5034    1.0000 </r>
       <r>  -59.4019    1.0000 </r>
       <r>  -14.9384    1.0000 </r>
       <r>   -8.6909    1.0000 </r>
       <r>   -8.5662    1.0000 </r>
       <r>   -8.3545    1.0000 </r>
       <r>   -8.2239    1.0000 </r>
       <r>   -8.2207    1.0000 </r>
       <r>   -7.1972    1.0000 </r>
       <r>   -6.1512    1.0000 </r>
       <r>   -5.3147    0.1297 </r>
       <r>   -1.2297    0.0000 </r>
       <r>   -0.6178    0.0000 </r>
       <r>    1.1976    0.0000 </r>
       <r>    1.5956    0.0000 </r>
      </set>
      <set comment="kpoint 29">
       <r>  -59.5047    1.0000 </r>
       <r>  -59.5034    1.0000 </r>
       <r>  -59.4019    1.0000 </r>
       <r>  -14.9385    1.0000 </r>
       <r>   -8.6928    1.0000 </r>
       <r>   -8.5639    1.0000 </r>
       <r>   -8.3542    1.0000 </r>
       <r>   -8.2241    1.0000 </r>
       <r>   -8.2208    1.0000 </r>
       <r>   -7.1967    1.0000 </r>
       <r>   -6.1516    1.0000 </r>
       <r>   -5.3149    0.1325 </r>
       <r>   -1.2292    0.0000 </r>
       <r>   -0.6173    0.0000 </r>
       <r>    1.1970    0.0000 </r>
       <r>    1.5950    0.0000 </r>
      </set>
      <set comment="kpoint 30">
       <r>  -59.5047    1.0000 </r>
       <r>  -59.5034    1.0000 </r>
       <r>  -59.4019    1.0000 </r>
       <r>  -14.9588    1.0000 </r>
       <r>   -8.7566    1.0000 </r>
       <r>   -8.6198    1.0000 </r>
       <r>   -8.3423    1.0000 </r>
       <r>   -8.2223    1.0000 </r>
       <r>   -8.1776    1.0000 </r>
       <r>   -7.0295    1.0000 </r>
       <r>   -6.0201    1.0000 </r>
       <r>   -5.3844    1.0104 </r>
       <r>   -1.2861    0.0000 </r>
       <r>   -0.5338    0.0000 </r>
       <r>    0.7459    0.0000 </r>
       <r>    1.4469    0.0000 </r>
      </set>
      <set comment="kpoint 31">
       <r>  -59.5047    1.0000 </r>
       <r>  -59.5034    1.0000 </r>
       <r>  -59.4019    1.0000 </r>
       <r>  -14.9942    1.0000 </r>
       <r>   -8.8313    1.0000 </r>
       <r>   -8.7038    1.0000 </r>
       <r>   -8.3206    1.0000 </r>
       <r>   -8.2190    1.0000 </r>
       <r>   -8.1366    1.0000 </r>
       <r>   -6.7329    1.0000 </r>
       <r>   -5.7803    1.0000 </r>
       <r>   -5.5030    1.0000 </r>
       <r>   -1.4720    0.0000 </r>
       <r>   -0.3983    0.0000 </r>
       <r>    0.3782    0.0000 </r>
       <r>    0.9583    0.0000 </r>
      </set>
      <set comment="kpoint 32">
       <r>  -59.5047    1.0000 </r>
       <r>  -59.5034    1.0000 </r>
       <r>  -59.4019    1.0000 </r>
       <r>  -15.0361    1.0000 </r>
       <r>   -8.8881    1.0000 </r>
       <r>   -8.7902    1.0000 </r>
       <r>   -8.2926    1.0000 </r>
       <r>   -8.2152    1.0000 </r>
       <r>   -8.1113    1.0000 </r>
       <r>   -6.3593    1.0000 </r>
       <r>   -5.6400    1.0000 </r>
       <r>   -5.4766    1.0004 </r>
       <r>   -1.8414    0.0000 </r>
       <r>   -0.2620    0.0000 </r>
       <r>    0.1814    0.0000 </r>
       <r>    0.6435    0.0000 </r>
      </set>
      <set comment="kpoint 33">
       <r>  -59.5047    1.0000 </r>
       <r>  -59.5033    1.0000 </r>
       <r>  -59.4019    1.0000 </r>
       <r>  -15.0748    1.0000 </r>
       <r>   -8.9226    1.0000 </r>
       <r>   -8.8614    1.0000 </r>
       <r>   -8.2643    1.0000 </r>
       <r>   -8.2120    1.0000 </r>
       <r>   -8.0982    1.0000 </r>
       <r>   -5.9619    1.0000 </r>
       <r>   -5.7644    1.0000 </r>
       <r>   -5.1804   -0.0000 </r>
       <r>   -2.2940    0.0000 </r>
       <r>   -0.1745    0.0000 </r>
       <r>    0.0651    0.0000 </r>
       <r>    0.5522    0.0000 </r>
      </set>
      <set comment="kpoint 34">
       <r>  -59.5047    1.0000 </r>
       <r>  -59.5033    1.0000 </r>
       <r>  -59.4019    1.0000 </r>
       <r>  -15.0586    1.0000 </r>
       <r>   -8.9031    1.0000 </r>
       <r>   -8.8395    1.0000 </r>
       <r>   -8.2773    1.0000 </r>
       <r>   -8.2124    1.0000 </r>
       <r>   -8.1037    1.0000 </r>
       <r>   -6.1729    1.0000 </r>
       <r>   -5.7126    1.0000 </r>
       <r>   -5.2329   -0.0050 </r>
       <r>   -2.1949    0.0000 </r>
       <r>   -0.2116    0.0000 </r>
       <r>    0.1124    0.0000 </r>
       <r>    0.7039    0.0000 </r>
      </set>
      <set comment="kpoint 35">
       <r>  -59.5047    1.0000 </r>
       <r>  -59.5033    1.0000 </r>
       <r>  -59.4019    1.0000 </r>
       <r>  -15.0747    1.0000 </r>
       <r>   -8.9226    1.0000 </r>
       <r>   -8.8615    1.0000 </r>
       <r>   -8.2644    1.0000 </r>
       <r>   -8.2119    1.0000 </r>
       <r>   -8.0982    1.0000 </r>
       <r>   -5.9623    1.0000 </r>
       <r>   -5.7643    1.0000 </r>
       <r>   -5.1801   -0.0000 </r>
       <r>   -2.2941    0.0000 </r>
       <r>   -0.1745    0.0000 </r>
       <r>    0.0652    0.0000 </r>
       <r>    0.5525    0.0000 </r>
      </set>
      <set comment="kpoint 36">
       <r>  -59.5047    1.0000 </r>
       <r>  -59.5033    1.0000 </r>
       <r>  -59.4019    1.0000 </r>
       <r>  -15.0746    1.0000 </r>
       <r>   -8.9235    1.0000 </r>
       <r>   -8.8604    1.0000 </r>
       <r>   -8.2652    1.0000 </r>
       <r>   -8.2112    1.0000 </r>
       <r>   -8.0982    1.0000 </r>
       <r>   -5.9639    1.0000 </r>
       <r>   -5.7640    1.0000 </r>
       <r>   -5.1795   -0.0000 </r>
       <r>   -2.2934    0.0000 </r>
       <r>   -0.1749    0.0000 </r>
       <r>    0.0660    0.0000 </r>
       <r>    0.5558    0.0000 </r>
      </set>
      <set comment="kpoint 37">
       <r>  -59.5047    1.0000 </r>
       <r>  -59.5033    1.0000 </r>
       <r>  -59.4019    1.0000 </r>
       <r>  -15.0583    1.0000 </r>
       <r>   -8.9051    1.0000 </r>
       <r>   -8.8373    1.0000 </r>
       <r>   -8.2791    1.0000 </r>
       <r>   -8.2109    1.0000 </r>
       <r>   -8.1037    1.0000 </r>
       <r>   -6.1766    1.0000 </r>
       <r>   -5.7117    1.0000 </r>
       <r>   -5.2318   -0.0046 </r>
       <r>   -2.1933    0.0000 </r>
       <r>   -0.2128    0.0000 </r>
       <r>    0.1142    0.0000 </r>
       <r>    0.7077    0.0000 </r>
      </set>
      <set comment="kpoint 38">
       <r>  -59.5047    1.0000 </r>
       <r>  -59.5033    1.0000 </r>
       <r>  -59.4019    1.0000 </r>
       <r>  -15.0293    1.0000 </r>
       <r>   -8.8738    1.0000 </r>
       <r>   -8.7847    1.0000 </r>
       <r>   -8.3000    1.0000 </r>
       <r>   -8.2132    1.0000 </r>
       <r>   -8.1160    1.0000 </r>
       <r>   -6.4610    1.0000 </r>
       <r>   -5.6180    1.0000 </r>
       <r>   -5.4462    1.0052 </r>
       <r>   -1.9062    0.0000 </r>
       <r>   -0.2930    0.0000 </r>
       <r>    0.2277    0.0000 </r>
       <r>    0.8205    0.0000 </r>
      </set>
      <set comment="kpoint 39">
       <r>  -59.5047    1.0000 </r>
       <r>  -59.5033    1.0000 </r>
       <r>  -59.4019    1.0000 </r>
       <r>  -14.9938    1.0000 </r>
       <r>   -8.8293    1.0000 </r>
       <r>   -8.7058    1.0000 </r>
       <r>   -8.3219    1.0000 </r>
       <r>   -8.2180    1.0000 </r>
       <r>   -8.1367    1.0000 </r>
       <r>   -6.7362    1.0000 </r>
       <r>   -5.7783    1.0000 </r>
       <r>   -5.5020    1.0000 </r>
       <r>   -1.4734    0.0000 </r>
       <r>   -0.4001    0.0000 </r>
       <r>    0.3809    0.0000 </r>
       <r>    0.9625    0.0000 </r>
      </set>
      <set comment="kpoint 40">
       <r>  -59.5047    1.0000 </r>
       <r>  -59.5033    1.0000 </r>
       <r>  -59.4019    1.0000 </r>
       <r>  -14.9600    1.0000 </r>
       <r>   -8.7689    1.0000 </r>
       <r>   -8.6199    1.0000 </r>
       <r>   -8.3404    1.0000 </r>
       <r>   -8.2236    1.0000 </r>
       <r>   -8.1635    1.0000 </r>
       <r>   -6.9654    1.0000 </r>
       <r>   -6.1148    1.0000 </r>
       <r>   -5.3891    1.0239 </r>
       <r>   -1.0595    0.0000 </r>
       <r>   -0.5016    0.0000 </r>
       <r>    0.6135    0.0000 </r>
       <r>    1.2671    0.0000 </r>
      </set>
      <set comment="kpoint 41">
       <r>  -59.5047    1.0000 </r>
       <r>  -59.5033    1.0000 </r>
       <r>  -59.4019    1.0000 </r>
       <r>  -14.9358    1.0000 </r>
       <r>   -8.7032    1.0000 </r>
       <r>   -8.5596    1.0000 </r>
       <r>   -8.3523    1.0000 </r>
       <r>   -8.2281    1.0000 </r>
       <r>   -8.1846    1.0000 </r>
       <r>   -7.1233    1.0000 </r>
       <r>   -6.3599    1.0000 </r>
       <r>   -5.3067    0.0546 </r>
       <r>   -0.8203    0.0000 </r>
       <r>   -0.5709    0.0000 </r>
       <r>    1.0125    0.0000 </r>
       <r>    1.4366    0.0000 </r>
      </set>
      <set comment="kpoint 42">
       <r>  -59.5047    1.0000 </r>
       <r>  -59.5033    1.0000 </r>
       <r>  -59.4019    1.0000 </r>
       <r>  -14.9271    1.0000 </r>
       <r>   -8.6706    1.0000 </r>
       <r>   -8.5426    1.0000 </r>
       <r>   -8.3562    1.0000 </r>
       <r>   -8.2299    1.0000 </r>
       <r>   -8.1901    1.0000 </r>
       <r>   -7.1813    1.0000 </r>
       <r>   -6.4497    1.0000 </r>
       <r>   -5.2766   -0.0352 </r>
       <r>   -0.7540    0.0000 </r>
       <r>   -0.5946    0.0000 </r>
       <r>    1.3550    0.0000 </r>
       <r>    1.3695    0.0000 </r>
      </set>
      <set comment="kpoint 43">
       <r>  -59.5047    1.0000 </r>
       <r>  -59.5034    1.0000 </r>
       <r>  -59.4019    1.0000 </r>
       <r>  -14.9361    1.0000 </r>
       <r>   -8.7066    1.0000 </r>
       <r>   -8.5557    1.0000 </r>
       <r>   -8.3515    1.0000 </r>
       <r>   -8.2286    1.0000 </r>
       <r>   -8.1848    1.0000 </r>
       <r>   -7.1217    1.0000 </r>
       <r>   -6.3609    1.0000 </r>
       <r>   -5.3074    0.0603 </r>
       <r>   -0.8190    0.0000 </r>
       <r>   -0.5695    0.0000 </r>
       <r>    1.0096    0.0000 </r>
       <r>    1.4353    0.0000 </r>
      </set>
      <set comment="kpoint 44">
       <r>  -59.5047    1.0000 </r>
       <r>  -59.5034    1.0000 </r>
       <r>  -59.4019    1.0000 </r>
       <r>  -14.9605    1.0000 </r>
       <r>   -8.7720    1.0000 </r>
       <r>   -8.6165    1.0000 </r>
       <r>   -8.3389    1.0000 </r>
       <r>   -8.2246    1.0000 </r>
       <r>   -8.1635    1.0000 </r>
       <r>   -6.9622    1.0000 </r>
       <r>   -6.1165    1.0000 </r>
       <r>   -5.3904    1.0265 </r>
       <r>   -1.0580    0.0000 </r>
       <r>   -0.4993    0.0000 </r>
       <r>    0.6095    0.0000 </r>
       <r>    1.2634    0.0000 </r>
      </set>
      <set comment="kpoint 45">
       <r>  -59.5047    1.0000 </r>
       <r>  -59.5034    1.0000 </r>
       <r>  -59.4019    1.0000 </r>
       <r>  -14.9943    1.0000 </r>
       <r>   -8.8307    1.0000 </r>
       <r>   -8.7045    1.0000 </r>
       <r>   -8.3200    1.0000 </r>
       <r>   -8.2194    1.0000 </r>
       <r>   -8.1365    1.0000 </r>
       <r>   -6.7319    1.0000 </r>
       <r>   -5.7802    1.0000 </r>
       <r>   -5.5034    1.0000 </r>
       <r>   -1.4732    0.0000 </r>
       <r>   -0.3976    0.0000 </r>
       <r>    0.3776    0.0000 </r>
       <r>    0.9583    0.0000 </r>
      </set>
      <set comment="kpoint 46">
       <r>  -59.5047    1.0000 </r>
       <r>  -59.5034    1.0000 </r>
       <r>  -59.4019    1.0000 </r>
       <r>  -15.0297    1.0000 </r>
       <r>   -8.8731    1.0000 </r>
       <r>   -8.7856    1.0000 </r>
       <r>   -8.2979    1.0000 </r>
       <r>   -8.2148    1.0000 </r>
       <r>   -8.1159    1.0000 </r>
       <r>   -6.4565    1.0000 </r>
       <r>   -5.6193    1.0000 </r>
       <r>   -5.4477    1.0046 </r>
       <r>   -1.9074    0.0000 </r>
       <r>   -0.2911    0.0000 </r>
       <r>    0.2254    0.0000 </r>
       <r>    0.8162    0.0000 </r>
      </set>
      <set comment="kpoint 47">
       <r>  -59.5047    1.0000 </r>
       <r>  -59.5034    1.0000 </r>
       <r>  -59.4019    1.0000 </r>
       <r>  -15.0118    1.0000 </r>
       <r>   -8.8363    1.0000 </r>
       <r>   -8.7629    1.0000 </r>
       <r>   -8.3115    1.0000 </r>
       <r>   -8.2147    1.0000 </r>
       <r>   -8.1300    1.0000 </r>
       <r>   -6.6615    1.0000 </r>
       <r>   -5.5607    1.0000 </r>
       <r>   -5.4791    1.0003 </r>
       <r>   -1.9303    0.0000 </r>
       <r>   -0.3676    0.0000 </r>
       <r>    0.3453    0.0000 </r>
       <r>    1.0549    0.0000 </r>
      </set>
      <set comment="kpoint 48">
       <r>  -59.5047    1.0000 </r>
       <r>  -59.5034    1.0000 </r>
       <r>  -59.4019    1.0000 </r>
       <r>  -15.0297    1.0000 </r>
       <r>   -8.8730    1.0000 </r>
       <r>   -8.7857    1.0000 </r>
       <r>   -8.2980    1.0000 </r>
       <r>   -8.2148    1.0000 </r>
       <r>   -8.1159    1.0000 </r>
       <r>   -6.4568    1.0000 </r>
       <r>   -5.6192    1.0000 </r>
       <r>   -5.4475    1.0047 </r>
       <r>   -1.9075    0.0000 </r>
       <r>   -0.2912    0.0000 </r>
       <r>    0.2255    0.0000 </r>
       <r>    0.8166    0.0000 </r>
      </set>
      <set comment="kpoint 49">
       <r>  -59.5047    1.0000 </r>
       <r>  -59.5033    1.0000 </r>
       <r>  -59.4019    1.0000 </r>
       <r>  -15.0360    1.0000 </r>
       <r>   -8.8880    1.0000 </r>
       <r>   -8.7903    1.0000 </r>
       <r>   -8.2929    1.0000 </r>
       <r>   -8.2150    1.0000 </r>
       <r>   -8.1113    1.0000 </r>
       <r>   -6.3598    1.0000 </r>
       <r>   -5.6399    1.0000 </r>
       <r>   -5.4763    1.0004 </r>
       <r>   -1.8415    0.0000 </r>
       <r>   -0.2622    0.0000 </r>
       <r>    0.1817    0.0000 </r>
       <r>    0.6441    0.0000 </r>
      </set>
      <set comment="kpoint 50">
       <r>  -59.5047    1.0000 </r>
       <r>  -59.5034    1.0000 </r>
       <r>  -59.4019    1.0000 </r>
       <r>  -15.0294    1.0000 </r>
       <r>   -8.8747    1.0000 </r>
       <r>   -8.7838    1.0000 </r>
       <r>   -8.2993    1.0000 </r>
       <r>   -8.2138    1.0000 </r>
       <r>   -8.1160    1.0000 </r>
       <r>   -6.4591    1.0000 </r>
       <r>   -5.6184    1.0000 </r>
       <r>   -5.4475    1.0047 </r>
       <r>   -1.9053    0.0000 </r>
       <r>   -0.2923    0.0000 </r>
       <r>    0.2268    0.0000 </r>
       <r>    0.8176    0.0000 </r>
      </set>
      <set comment="kpoint 51">
       <r>  -59.5047    1.0000 </r>
       <r>  -59.5033    1.0000 </r>
       <r>  -59.4019    1.0000 </r>
       <r>  -15.0113    1.0000 </r>
       <r>   -8.8388    1.0000 </r>
       <r>   -8.7602    1.0000 </r>
       <r>   -8.3135    1.0000 </r>
       <r>   -8.2133    1.0000 </r>
       <r>   -8.1301    1.0000 </r>
       <r>   -6.6651    1.0000 </r>
       <r>   -5.5592    1.0000 </r>
       <r>   -5.4794    1.0003 </r>
       <r>   -1.9270    0.0000 </r>
       <r>   -0.3698    0.0000 </r>
       <r>    0.3468    0.0000 </r>
       <r>    1.0523    0.0000 </r>
      </set>
      <set comment="kpoint 52">
       <r>  -59.5047    1.0000 </r>
       <r>  -59.5033    1.0000 </r>
       <r>  -59.4019    1.0000 </r>
       <r>  -14.9858    1.0000 </r>
       <r>   -8.7970    1.0000 </r>
       <r>   -8.7040    1.0000 </r>
       <r>   -8.3296    1.0000 </r>
       <r>   -8.2159    1.0000 </r>
       <r>   -8.1529    1.0000 </r>
       <r>   -6.8719    1.0000 </r>
       <r>   -5.6863    1.0000 </r>
       <r>   -5.4748    1.0004 </r>
       <r>   -1.7119    0.0000 </r>
       <r>   -0.4625    0.0000 </r>
       <r>    0.5276    0.0000 </r>
       <r>    1.2804    0.0000 </r>
      </set>
      <set comment="kpoint 53">
       <r>  -59.5047    1.0000 </r>
       <r>  -59.5033    1.0000 </r>
       <r>  -59.4019    1.0000 </r>
       <r>  -14.9585    1.0000 </r>
       <r>   -8.7535    1.0000 </r>
       <r>   -8.6231    1.0000 </r>
       <r>   -8.3433    1.0000 </r>
       <r>   -8.2216    1.0000 </r>
       <r>   -8.1776    1.0000 </r>
       <r>   -7.0314    1.0000 </r>
       <r>   -6.0190    1.0000 </r>
       <r>   -5.3836    1.0074 </r>
       <r>   -1.2870    0.0000 </r>
       <r>   -0.5354    0.0000 </r>
       <r>    0.7476    0.0000 </r>
       <r>    1.4405    0.0000 </r>
      </set>
      <set comment="kpoint 54">
       <r>  -59.5047    1.0000 </r>
       <r>  -59.5033    1.0000 </r>
       <r>  -59.4019    1.0000 </r>
       <r>  -14.9358    1.0000 </r>
       <r>   -8.7031    1.0000 </r>
       <r>   -8.5597    1.0000 </r>
       <r>   -8.3524    1.0000 </r>
       <r>   -8.2280    1.0000 </r>
       <r>   -8.1846    1.0000 </r>
       <r>   -7.1234    1.0000 </r>
       <r>   -6.3599    1.0000 </r>
       <r>   -5.3066    0.0541 </r>
       <r>   -0.8202    0.0000 </r>
       <r>   -0.5711    0.0000 </r>
       <r>    1.0127    0.0000 </r>
       <r>    1.4367    0.0000 </r>
      </set>
      <set comment="kpoint 55">
       <r>  -59.5047    1.0000 </r>
       <r>  -59.5033    1.0000 </r>
       <r>  -59.4019    1.0000 </r>
       <r>  -14.9230    1.0000 </r>
       <r>   -8.6582    1.0000 </r>
       <r>   -8.5459    1.0000 </r>
       <r>   -8.3565    1.0000 </r>
       <r>   -8.2324    1.0000 </r>
       <r>   -8.1674    1.0000 </r>
       <r>   -7.1496    1.0000 </r>
       <r>   -6.5898    1.0000 </r>
       <r>   -5.2627   -0.0259 </r>
       <r>   -0.5815    0.0000 </r>
       <r>   -0.5212    0.0000 </r>
       <r>    1.2626    0.0000 </r>
       <r>    1.3919    0.0000 </r>
      </set>
      <set comment="kpoint 56">
       <r>  -59.5047    1.0000 </r>
       <r>  -59.5033    1.0000 </r>
       <r>  -59.4019    1.0000 </r>
       <r>  -14.9232    1.0000 </r>
       <r>   -8.6608    1.0000 </r>
       <r>   -8.5429    1.0000 </r>
       <r>   -8.3561    1.0000 </r>
       <r>   -8.2328    1.0000 </r>
       <r>   -8.1676    1.0000 </r>
       <r>   -7.1486    1.0000 </r>
       <r>   -6.5903    1.0000 </r>
       <r>   -5.2632   -0.0263 </r>
       <r>   -0.5805    0.0000 </r>
       <r>   -0.5206    0.0000 </r>
       <r>    1.2619    0.0000 </r>
       <r>    1.3885    0.0000 </r>
      </set>
      <set comment="kpoint 57">
       <r>  -59.5047    1.0000 </r>
       <r>  -59.5034    1.0000 </r>
       <r>  -59.4019    1.0000 </r>
       <r>  -14.9362    1.0000 </r>
       <r>   -8.7070    1.0000 </r>
       <r>   -8.5551    1.0000 </r>
       <r>   -8.3510    1.0000 </r>
       <r>   -8.2290    1.0000 </r>
       <r>   -8.1849    1.0000 </r>
       <r>   -7.1209    1.0000 </r>
       <r>   -6.3608    1.0000 </r>
       <r>   -5.3079    0.0642 </r>
       <r>   -0.8198    0.0000 </r>
       <r>   -0.5685    0.0000 </r>
       <r>    1.0088    0.0000 </r>
       <r>    1.4348    0.0000 </r>
      </set>
      <set comment="kpoint 58">
       <r>  -59.5047    1.0000 </r>
       <r>  -59.5034    1.0000 </r>
       <r>  -59.4019    1.0000 </r>
       <r>  -14.9591    1.0000 </r>
       <r>   -8.7560    1.0000 </r>
       <r>   -8.6204    1.0000 </r>
       <r>   -8.3413    1.0000 </r>
       <r>   -8.2230    1.0000 </r>
       <r>   -8.1776    1.0000 </r>
       <r>   -7.0280    1.0000 </r>
       <r>   -6.0196    1.0000 </r>
       <r>   -5.3853    1.0135 </r>
       <r>   -1.2884    0.0000 </r>
       <r>   -0.5322    0.0000 </r>
       <r>    0.7451    0.0000 </r>
       <r>    1.4544    0.0000 </r>
      </set>
      <set comment="kpoint 59">
       <r>  -59.5047    1.0000 </r>
       <r>  -59.5034    1.0000 </r>
       <r>  -59.4019    1.0000 </r>
       <r>  -14.9864    1.0000 </r>
       <r>   -8.7968    1.0000 </r>
       <r>   -8.7043    1.0000 </r>
       <r>   -8.3274    1.0000 </r>
       <r>   -8.2175    1.0000 </r>
       <r>   -8.1527    1.0000 </r>
       <r>   -6.8681    1.0000 </r>
       <r>   -5.6863    1.0000 </r>
       <r>   -5.4766    1.0004 </r>
       <r>   -1.7148    0.0000 </r>
       <r>   -0.4595    0.0000 </r>
       <r>    0.5260    0.0000 </r>
       <r>    1.2469    0.0000 </r>
      </set>
      <set comment="kpoint 60">
       <r>  -59.5047    1.0000 </r>
       <r>  -59.5034    1.0000 </r>
       <r>  -59.4019    1.0000 </r>
       <r>  -14.9722    1.0000 </r>
       <r>   -8.7406    1.0000 </r>
       <r>   -8.6935    1.0000 </r>
       <r>   -8.3381    1.0000 </r>
       <r>   -8.2167    1.0000 </r>
       <r>   -8.1819    1.0000 </r>
       <r>   -7.0266    1.0000 </r>
       <r>   -5.6773    1.0000 </r>
       <r>   -5.4288    1.0152 </r>
       <r>   -1.8343    0.0000 </r>
       <r>   -0.5429    0.0000 </r>
       <r>    0.7144    0.0000 </r>
       <r>    1.3957    0.0000 </r>
      </set>
      <set comment="kpoint 61">
       <r>  -59.5047    1.0000 </r>
       <r>  -59.5034    1.0000 </r>
       <r>  -59.4019    1.0000 </r>
       <r>  -14.9864    1.0000 </r>
       <r>   -8.7966    1.0000 </r>
       <r>   -8.7046    1.0000 </r>
       <r>   -8.3275    1.0000 </r>
       <r>   -8.2174    1.0000 </r>
       <r>   -8.1528    1.0000 </r>
       <r>   -6.8683    1.0000 </r>
       <r>   -5.6862    1.0000 </r>
       <r>   -5.4766    1.0004 </r>
       <r>   -1.7149    0.0000 </r>
       <r>   -0.4596    0.0000 </r>
       <r>    0.5261    0.0000 </r>
       <r>    1.2469    0.0000 </r>
      </set>
      <set comment="kpoint 62">
       <r>  -59.5047    1.0000 </r>
       <r>  -59.5034    1.0000 </r>
       <r>  -59.4019    1.0000 </r>
       <r>  -14.9943    1.0000 </r>
       <r>   -8.8304    1.0000 </r>
       <r>   -8.7048    1.0000 </r>
       <r>   -8.3202    1.0000 </r>
       <r>   -8.2193    1.0000 </r>
       <r>   -8.1366    1.0000 </r>
       <r>   -6.7323    1.0000 </r>
       <r>   -5.7799    1.0000 </r>
       <r>   -5.5033    1.0000 </r>
       <r>   -1.4734    0.0000 </r>
       <r>   -0.3978    0.0000 </r>
       <r>    0.3780    0.0000 </r>
       <r>    0.9588    0.0000 </r>
      </set>
      <set comment="kpoint 63">
       <r>  -59.5047    1.0000 </r>
       <r>  -59.5034    1.0000 </r>
       <r>  -59.4019    1.0000 </r>
       <r>  -14.9941    1.0000 </r>
       <r>   -8.8311    1.0000 </r>
       <r>   -8.7040    1.0000 </r>
       <r>   -8.3208    1.0000 </r>
       <r>   -8.2188    1.0000 </r>
       <r>   -8.1366    1.0000 </r>
       <r>   -6.7334    1.0000 </r>
       <r>   -5.7801    1.0000 </r>
       <r>   -5.5028    1.0000 </r>
       <r>   -1.4720    0.0000 </r>
       <r>   -0.3986    0.0000 </r>
       <r>    0.3786    0.0000 </r>
       <r>    0.9588    0.0000 </r>
      </set>
      <set comment="kpoint 64">
       <r>  -59.5047    1.0000 </r>
       <r>  -59.5034    1.0000 </r>
       <r>  -59.4019    1.0000 </r>
       <r>  -14.9859    1.0000 </r>
       <r>   -8.7988    1.0000 </r>
       <r>   -8.7021    1.0000 </r>
       <r>   -8.3291    1.0000 </r>
       <r>   -8.2163    1.0000 </r>
       <r>   -8.1529    1.0000 </r>
       <r>   -6.8708    1.0000 </r>
       <r>   -5.6871    1.0000 </r>
       <r>   -5.4752    1.0004 </r>
       <r>   -1.7112    0.0000 </r>
       <r>   -0.4619    0.0000 </r>
       <r>    0.5271    0.0000 </r>
       <r>    1.2467    0.0000 </r>
      </set>
      <set comment="kpoint 65">
       <r>  -59.5047    1.0000 </r>
       <r>  -59.5034    1.0000 </r>
       <r>  -59.4019    1.0000 </r>
       <r>  -14.9715    1.0000 </r>
       <r>   -8.7438    1.0000 </r>
       <r>   -8.6901    1.0000 </r>
       <r>   -8.3402    1.0000 </r>
       <r>   -8.2152    1.0000 </r>
       <r>   -8.1821    1.0000 </r>
       <r>   -7.0297    1.0000 </r>
       <r>   -5.6788    1.0000 </r>
       <r>   -5.4268    1.0167 </r>
       <r>   -1.8296    0.0000 </r>
       <r>   -0.5461    0.0000 </r>
       <r>    0.7152    0.0000 </r>
       <r>    1.3958    0.0000 </r>
      </set>
      <set comment="kpoint 66">
       <r>  -59.5047    1.0000 </r>
       <r>  -59.5033    1.0000 </r>
       <r>  -59.4019    1.0000 </r>
       <r>  -14.9543    1.0000 </r>
       <r>   -8.7099    1.0000 </r>
       <r>   -8.6330    1.0000 </r>
       <r>   -8.3495    1.0000 </r>
       <r>   -8.2179    1.0000 </r>
       <r>   -8.2131    1.0000 </r>
       <r>   -7.1460    1.0000 </r>
       <r>   -5.8522    1.0000 </r>
       <r>   -5.3688    0.9114 </r>
       <r>   -1.6511    0.0000 </r>
       <r>   -0.6056    0.0000 </r>
       <r>    0.9487    0.0000 </r>
       <r>    1.5903    0.0000 </r>
      </set>
      <set comment="kpoint 67">
       <r>  -59.5047    1.0000 </r>
       <r>  -59.5034    1.0000 </r>
       <r>  -59.4019    1.0000 </r>
       <r>  -14.9383    1.0000 </r>
       <r>   -8.6907    1.0000 </r>
       <r>   -8.5664    1.0000 </r>
       <r>   -8.3547    1.0000 </r>
       <r>   -8.2238    1.0000 </r>
       <r>   -8.2206    1.0000 </r>
       <r>   -7.1974    1.0000 </r>
       <r>   -6.1513    1.0000 </r>
       <r>   -5.3145    0.1276 </r>
       <r>   -1.2293    0.0000 </r>
       <r>   -0.6182    0.0000 </r>
       <r>    1.1978    0.0000 </r>
       <r>    1.5958    0.0000 </r>
      </set>
      <set comment="kpoint 68">
       <r>  -59.5047    1.0000 </r>
       <r>  -59.5033    1.0000 </r>
       <r>  -59.4019    1.0000 </r>
       <r>  -14.9271    1.0000 </r>
       <r>   -8.6702    1.0000 </r>
       <r>   -8.5431    1.0000 </r>
       <r>   -8.3563    1.0000 </r>
       <r>   -8.2298    1.0000 </r>
       <r>   -8.1900    1.0000 </r>
       <r>   -7.1815    1.0000 </r>
       <r>   -6.4497    1.0000 </r>
       <r>   -5.2764   -0.0352 </r>
       <r>   -0.7539    0.0000 </r>
       <r>   -0.5948    0.0000 </r>
       <r>    1.3554    0.0000 </r>
       <r>    1.3697    0.0000 </r>
      </set>
      <set comment="kpoint 69">
       <r>  -59.5047    1.0000 </r>
       <r>  -59.5033    1.0000 </r>
       <r>  -59.4019    1.0000 </r>
       <r>  -14.9232    1.0000 </r>
       <r>   -8.6605    1.0000 </r>
       <r>   -8.5432    1.0000 </r>
       <r>   -8.3561    1.0000 </r>
       <r>   -8.2327    1.0000 </r>
       <r>   -8.1676    1.0000 </r>
       <r>   -7.1488    1.0000 </r>
       <r>   -6.5903    1.0000 </r>
       <r>   -5.2631   -0.0262 </r>
       <r>   -0.5806    0.0000 </r>
       <r>   -0.5207    0.0000 </r>
       <r>    1.2620    0.0000 </r>
       <r>    1.3890    0.0000 </r>
      </set>
      <set comment="kpoint 70">
       <r>  -59.5047    1.0000 </r>
       <r>  -59.5033    1.0000 </r>
       <r>  -59.4019    1.0000 </r>
       <r>  -14.9274    1.0000 </r>
       <r>   -8.6732    1.0000 </r>
       <r>   -8.5394    1.0000 </r>
       <r>   -8.3553    1.0000 </r>
       <r>   -8.2306    1.0000 </r>
       <r>   -8.1905    1.0000 </r>
       <r>   -7.1799    1.0000 </r>
       <r>   -6.4499    1.0000 </r>
       <r>   -5.2775   -0.0354 </r>
       <r>   -0.7545    0.0000 </r>
       <r>   -0.5928    0.0000 </r>
       <r>    1.3518    0.0000 </r>
       <r>    1.3683    0.0000 </r>
      </set>
      <set comment="kpoint 71">
       <r>  -59.5047    1.0000 </r>
       <r>  -59.5034    1.0000 </r>
       <r>  -59.4019    1.0000 </r>
       <r>  -14.9389    1.0000 </r>
       <r>   -8.6940    1.0000 </r>
       <r>   -8.5623    1.0000 </r>
       <r>   -8.3529    1.0000 </r>
       <r>   -8.2250    1.0000 </r>
       <r>   -8.2211    1.0000 </r>
       <r>   -7.1950    1.0000 </r>
       <r>   -6.1509    1.0000 </r>
       <r>   -5.3163    0.1477 </r>
       <r>   -1.2317    0.0000 </r>
       <r>   -0.6149    0.0000 </r>
       <r>    1.1959    0.0000 </r>
       <r>    1.5942    0.0000 </r>
      </set>
      <set comment="kpoint 72">
       <r>  -59.5047    1.0000 </r>
       <r>  -59.5034    1.0000 </r>
       <r>  -59.4019    1.0000 </r>
       <r>  -14.9551    1.0000 </r>
       <r>   -8.7114    1.0000 </r>
       <r>   -8.6314    1.0000 </r>
       <r>   -8.3473    1.0000 </r>
       <r>   -8.2194    1.0000 </r>
       <r>   -8.2130    1.0000 </r>
       <r>   -7.1430    1.0000 </r>
       <r>   -5.8510    1.0000 </r>
       <r>   -5.3709    0.9304 </r>
       <r>   -1.6551    0.0000 </r>
       <r>   -0.6020    0.0000 </r>
       <r>    0.9477    0.0000 </r>
       <r>    1.5896    0.0000 </r>
      </set>
      <set comment="kpoint 73">
       <r>  -59.5047    1.0000 </r>
       <r>  -59.5034    1.0000 </r>
       <r>  -59.4019    1.0000 </r>
       <r>  -14.9494    1.0000 </r>
       <r>   -8.6515    1.0000 </r>
       <r>   -8.6466    1.0000 </r>
       <r>   -8.3525    1.0000 </r>
       <r>   -8.2487    1.0000 </r>
       <r>   -8.2178    1.0000 </r>
       <r>   -7.2215    1.0000 </r>
       <r>   -5.7882    1.0000 </r>
       <r>   -5.3512    0.6897 </r>
       <r>   -1.8131    0.0000 </r>
       <r>   -0.6542    0.0000 </r>
       <r>    1.1648    0.0000 </r>
       <r>    1.6633    0.0000 </r>
      </set>
      <set comment="kpoint 74">
       <r>  -59.5047    1.0000 </r>
       <r>  -59.5034    1.0000 </r>
       <r>  -59.4019    1.0000 </r>
       <r>  -14.9550    1.0000 </r>
       <r>   -8.7110    1.0000 </r>
       <r>   -8.6318    1.0000 </r>
       <r>   -8.3473    1.0000 </r>
       <r>   -8.2193    1.0000 </r>
       <r>   -8.2130    1.0000 </r>
       <r>   -7.1431    1.0000 </r>
       <r>   -5.8509    1.0000 </r>
       <r>   -5.3709    0.9301 </r>
       <r>   -1.6552    0.0000 </r>
       <r>   -0.6021    0.0000 </r>
       <r>    0.9477    0.0000 </r>
       <r>    1.5912    0.0000 </r>
      </set>
      <set comment="kpoint 75">
       <r>  -59.5047    1.0000 </r>
       <r>  -59.5034    1.0000 </r>
       <r>  -59.4019    1.0000 </r>
       <r>  -14.9591    1.0000 </r>
       <r>   -8.7556    1.0000 </r>
       <r>   -8.6208    1.0000 </r>
       <r>   -8.3414    1.0000 </r>
       <r>   -8.2229    1.0000 </r>
       <r>   -8.1776    1.0000 </r>
       <r>   -7.0282    1.0000 </r>
       <r>   -6.0195    1.0000 </r>
       <r>   -5.3852    1.0132 </r>
       <r>   -1.2885    0.0000 </r>
       <r>   -0.5324    0.0000 </r>
       <r>    0.7453    0.0000 </r>
       <r>    1.4438    0.0000 </r>
      </set>
      <set comment="kpoint 76">
       <r>  -59.5047    1.0000 </r>
       <r>  -59.5034    1.0000 </r>
       <r>  -59.4019    1.0000 </r>
       <r>  -14.9604    1.0000 </r>
       <r>   -8.7716    1.0000 </r>
       <r>   -8.6170    1.0000 </r>
       <r>   -8.3391    1.0000 </r>
       <r>   -8.2245    1.0000 </r>
       <r>   -8.1635    1.0000 </r>
       <r>   -6.9626    1.0000 </r>
       <r>   -6.1163    1.0000 </r>
       <r>   -5.3902    1.0262 </r>
       <r>   -1.0582    0.0000 </r>
       <r>   -0.4996    0.0000 </r>
       <r>    0.6101    0.0000 </r>
       <r>    1.2639    0.0000 </r>
      </set>
      <set comment="kpoint 77">
       <r>  -59.5047    1.0000 </r>
       <r>  -59.5034    1.0000 </r>
       <r>  -59.4019    1.0000 </r>
       <r>  -14.9587    1.0000 </r>
       <r>   -8.7562    1.0000 </r>
       <r>   -8.6201    1.0000 </r>
       <r>   -8.3426    1.0000 </r>
       <r>   -8.2221    1.0000 </r>
       <r>   -8.1776    1.0000 </r>
       <r>   -7.0299    1.0000 </r>
       <r>   -6.0200    1.0000 </r>
       <r>   -5.3842    1.0096 </r>
       <r>   -1.2859    0.0000 </r>
       <r>   -0.5342    0.0000 </r>
       <r>    0.7462    0.0000 </r>
       <r>    1.4381    0.0000 </r>
      </set>
      <set comment="kpoint 78">
       <r>  -59.5047    1.0000 </r>
       <r>  -59.5034    1.0000 </r>
       <r>  -59.4019    1.0000 </r>
       <r>  -14.9544    1.0000 </r>
       <r>   -8.7123    1.0000 </r>
       <r>   -8.6304    1.0000 </r>
       <r>   -8.3492    1.0000 </r>
       <r>   -8.2180    1.0000 </r>
       <r>   -8.2131    1.0000 </r>
       <r>   -7.1455    1.0000 </r>
       <r>   -5.8525    1.0000 </r>
       <r>   -5.3690    0.9135 </r>
       <r>   -1.6507    0.0000 </r>
       <r>   -0.6052    0.0000 </r>
       <r>    0.9484    0.0000 </r>
       <r>    1.5899    0.0000 </r>
      </set>
      <set comment="kpoint 79">
       <r>  -59.5047    1.0000 </r>
       <r>  -59.5034    1.0000 </r>
       <r>  -59.4019    1.0000 </r>
       <r>  -14.9487    1.0000 </r>
       <r>   -8.6524    1.0000 </r>
       <r>   -8.6457    1.0000 </r>
       <r>   -8.3547    1.0000 </r>
       <r>   -8.2488    1.0000 </r>
       <r>   -8.2163    1.0000 </r>
       <r>   -7.2242    1.0000 </r>
       <r>   -5.7903    1.0000 </r>
       <r>   -5.3490    0.6539 </r>
       <r>   -1.8079    0.0000 </r>
       <r>   -0.6579    0.0000 </r>
[...]
       </set>
       <set comment="band 13">
        <r>  0.1547  0.0038  0.0000  0.0095  0.0139  0.0000  0.0072  0.0000  0.0052 </r>
        <r>  0.0344  0.0331  0.0000  0.0615  0.0182  0.0000  0.0038  0.0000  0.0063 </r>
       </set>
       <set comment="band 14">
        <r>  0.0000  0.0000  0.0457  0.0000  0.0000  0.0013  0.0000  0.0039  0.0000 </r>
        <r>  0.0000  0.0000  0.0065  0.0000  0.0000  0.0073  0.0000  0.0208  0.0000 </r>
       </set>
       <set comment="band 15">
        <r>  0.0152  0.0006  0.0000  0.0008  0.0017  0.0000  0.0037  0.0000  0.0007 </r>
        <r>  0.0144  0.0207  0.0000  0.0620  0.0003  0.0000  0.0068  0.0000  0.0008 </r>
       </set>
       <set comment="band 16">
        <r>  0.0008  0.0012  0.0000  0.0027  0.0018  0.0000  0.0113  0.0000  0.0009 </r>
        <r>  0.0007  0.0103  0.0000  0.0308  0.0029  0.0000  0.0176  0.0000  0.0012 </r>
       </set>
      </set>
      <set comment="kpoint 81">
       <set comment="band 1">
        <r>  0.0000  0.0042  0.0000  0.9905  0.0000  0.0000  0.0000  0.0000  0.0000 </r>
        <r>  0.0000  0.0000  0.0000  0.0000  0.0000  0.0000  0.0000  0.0000  0.0000 </r>
       </set>
       <set comment="band 2">
        <r>  0.0000  0.9905  0.0000  0.0042  0.0000  0.0000  0.0000  0.0000  0.0000 </r>
        <r>  0.0000  0.0000  0.0000  0.0000  0.0000  0.0000  0.0000  0.0000  0.0000 </r>
       </set>
       <set comment="band 3">
        <r>  0.0000  0.0000  0.9948  0.0000  0.0000  0.0000  0.0000  0.0000  0.0000 </r>
        <r>  0.0000  0.0000  0.0000  0.0000  0.0000  0.0000  0.0000  0.0000  0.0000 </r>
       </set>
       <set comment="band 4">
        <r>  0.0013  0.0009  0.0000  0.0016  0.0081  0.0000  0.0007  0.0000  0.0046 </r>
        <r>  0.6759  0.0000  0.0000  0.0000  0.0000  0.0000  0.0001  0.0000  0.0000 </r>
       </set>
       <set comment="band 5">
        <r>  0.0203  0.0003  0.0000  0.0001  0.0392  0.0000  0.3574  0.0000  0.2610 </r>
        <r>  0.0003  0.0403  0.0000  0.0481  0.0009  0.0000  0.0000  0.0000  0.0008 </r>
       </set>
       <set comment="band 6">
        <r>  0.0072  0.0005  0.0000  0.0007  0.3031  0.0000  0.2043  0.0000  0.2491 </r>
        <r>  0.0005  0.0264  0.0000  0.0323  0.0011  0.0000  0.0000  0.0000  0.0014 </r>
       </set>
       <set comment="band 7">
        <r>  0.0000  0.0000  0.0000  0.0000  0.0001  0.2852  0.0000  0.5410  0.0001 </r>
        <r>  0.0000  0.0000  0.0239  0.0000  0.0000  0.0000  0.0000  0.0001  0.0000 </r>
       </set>
       <set comment="band 8">
        <r>  0.0000  0.0000  0.0000  0.0000  0.0070  0.5727  0.0009  0.3027  0.0040 </r>
        <r>  0.0002  0.0000  0.0001  0.0001  0.0000  0.0006  0.0000  0.0003  0.0000 </r>
       </set>
       <set comment="band 9">
        <r>  0.0001  0.0001  0.0000  0.0003  0.4905  0.0077  0.0587  0.0046  0.3016 </r>
        <r>  0.0131  0.0004  0.0000  0.0036  0.0008  0.0000  0.0006  0.0000  0.0002 </r>
       </set>
       <set comment="band 10">
        <r>  0.0924  0.0003  0.0000  0.0016  0.0100  0.0000  0.2645  0.0000  0.0056 </r>
        <r>  0.0007  0.0509  0.0000  0.1183  0.0002  0.0000  0.0000  0.0000  0.0002 </r>
       </set>
       <set comment="band 11">
        <r>  0.0079  0.0122  0.0000  0.0063  0.0260  0.0000  0.0026  0.0000  0.0599 </r>
        <r>  0.0012  0.2308  0.0000  0.1110  0.0003  0.0000  0.0001  0.0000  0.0003 </r>
       </set>
       <set comment="band 12">
        <r>  0.0000  0.0000  0.0007  0.0000  0.0000  0.0281  0.0000  0.0485  0.0000 </r>
        <r>  0.0000  0.0000  0.4231  0.0000  0.0000  0.0000  0.0000  0.0000  0.0000 </r>
       </set>
       <set comment="band 13">
        <r>  0.1559  0.0034  0.0000  0.0075  0.0105  0.0000  0.0099  0.0000  0.0041 </r>
        <r>  0.0266  0.0735  0.0000  0.0728  0.0180  0.0000  0.0030  0.0000  0.0068 </r>
       </set>
       <set comment="band 14">
        <r>  0.0000  0.0000  0.0479  0.0000  0.0000  0.0005  0.0000  0.0032  0.0000 </r>
        <r>  0.0000  0.0000  0.0073  0.0000  0.0000  0.0096  0.0000  0.0181  0.0000 </r>
       </set>
       <set comment="band 15">
        <r>  0.0139  0.0029  0.0000  0.0025  0.0038  0.0000  0.0052  0.0000  0.0033 </r>
        <r>  0.0182  0.0102  0.0000  0.0657  0.0003  0.0000  0.0036  0.0000  0.0065 </r>
       </set>
       <set comment="band 16">
        <r>  0.0000  0.0000  0.0053  0.0000  0.0000  0.0090  0.0000  0.0070  0.0000 </r>
        <r>  0.0000  0.0001  0.0172  0.0003  0.0000  0.0105  0.0002  0.0111  0.0000 </r>
       </set>
      </set>
      <set comment="kpoint 82">
       <set comment="band 1">
        <r>  0.0000  0.0046  0.0000  0.9901  0.0000  0.0000  0.0000  0.0000  0.0000 </r>
        <r>  0.0000  0.0000  0.0000  0.0000  0.0000  0.0000  0.0000  0.0000  0.0000 </r>
       </set>
       <set comment="band 2">
        <r>  0.0000  0.9901  0.0000  0.0046  0.0000  0.0000  0.0000  0.0000  0.0000 </r>
        <r>  0.0000  0.0000  0.0000  0.0000  0.0000  0.0000  0.0000  0.0000  0.0000 </r>
       </set>
       <set comment="band 3">
        <r>  0.0000  0.0000  0.9948  0.0000  0.0000  0.0000  0.0000  0.0000  0.0000 </r>
        <r>  0.0000  0.0000  0.0000  0.0000  0.0000  0.0000  0.0000  0.0000  0.0000 </r>
       </set>
       <set comment="band 4">
        <r>  0.0011  0.0013  0.0000  0.0013  0.0063  0.0000  0.0006  0.0000  0.0066 </r>
        <r>  0.6762  0.0000  0.0000  0.0000  0.0000  0.0000  0.0001  0.0000  0.0000 </r>
       </set>
       <set comment="band 5">
        <r>  0.0229  0.0002  0.0000  0.0000  0.0607  0.0000  0.3857  0.0000  0.2006 </r>
        <r>  0.0000  0.0438  0.0000  0.0472  0.0013  0.0000  0.0000  0.0000  0.0006 </r>
       </set>
       <set comment="band 6">
        <r>  0.0044  0.0004  0.0000  0.0007  0.4434  0.0000  0.1279  0.0000  0.2125 </r>
        <r>  0.0002  0.0291  0.0000  0.0200  0.0010  0.0000  0.0000  0.0000  0.0018 </r>
       </set>
       <set comment="band 7">
        <r>  0.0000  0.0000  0.0000  0.0000  0.0001  0.4218  0.0000  0.4048  0.0001 </r>
        <r>  0.0000  0.0000  0.0242  0.0000  0.0000  0.0000  0.0000  0.0001  0.0000 </r>
       </set>
       <set comment="band 8">
        <r>  0.0000  0.0000  0.0000  0.0000  0.0000  0.4337  0.0000  0.4526  0.0000 </r>
        <r>  0.0000  0.0000  0.0001  0.0000  0.0000  0.0005  0.0000  0.0005  0.0000 </r>
       </set>
       <set comment="band 9">
        <r>  0.0000  0.0002  0.0000  0.0001  0.3188  0.0001  0.1396  0.0001  0.4115 </r>
        <r>  0.0137  0.0004  0.0000  0.0034  0.0004  0.0000  0.0006  0.0000  0.0001 </r>
       </set>
       <set comment="band 10">
        <r>  0.0983  0.0000  0.0000  0.0015  0.0159  0.0000  0.2316  0.0000  0.0199 </r>
        <r>  0.0022  0.0868  0.0000  0.0862  0.0002  0.0000  0.0000  0.0000  0.0003 </r>
       </set>
       <set comment="band 11">
        <r>  0.0071  0.0103  0.0000  0.0085  0.0389  0.0000  0.0035  0.0000  0.0341 </r>
        <r>  0.0007  0.1626  0.0000  0.1692  0.0003  0.0000  0.0000  0.0000  0.0006 </r>
       </set>
       <set comment="band 12">
        <r>  0.0000  0.0000  0.0006  0.0000  0.0000  0.0401  0.0000  0.0373  0.0000 </r>
        <r>  0.0000  0.0000  0.4236  0.0000  0.0000  0.0000  0.0000  0.0000  0.0000 </r>
       </set>
       <set comment="band 13">
        <r>  0.1670  0.0017  0.0001  0.0040  0.0048  0.0000  0.0141  0.0000  0.0013 </r>
        <r>  0.0162  0.1170  0.0000  0.0941  0.0149  0.0000  0.0017  0.0000  0.0097 </r>
       </set>
       <set comment="band 14">
        <r>  0.0003  0.0000  0.0500  0.0000  0.0000  0.0001  0.0000  0.0019  0.0000 </r>
        <r>  0.0000  0.0002  0.0096  0.0002  0.0000  0.0143  0.0000  0.0128  0.0000 </r>
       </set>
       <set comment="band 15">
        <r>  0.0117  0.0078  0.0000  0.0067  0.0078  0.0000  0.0015  0.0000  0.0102 </r>
        <r>  0.0313  0.0025  0.0000  0.0511  0.0024  0.0000  0.0004  0.0000  0.0128 </r>
       </set>
       <set comment="band 16">
        <r>  0.0000  0.0000  0.0050  0.0000  0.0000  0.0127  0.0000  0.0107  0.0000 </r>
        <r>  0.0000  0.0000  0.0049  0.0000  0.0000  0.0123  0.0000  0.0189  0.0000 </r>
       </set>
      </set>
      <set comment="kpoint 83">
       <set comment="band 1">
        <r>  0.0000  0.0053  0.0000  0.9894  0.0000  0.0000  0.0000  0.0000  0.0000 </r>
        <r>  0.0000  0.0000  0.0000  0.0000  0.0000  0.0000  0.0000  0.0000  0.0000 </r>
       </set>
       <set comment="band 2">
        <r>  0.0000  0.9894  0.0000  0.0053  0.0000  0.0000  0.0000  0.0000  0.0000 </r>
        <r>  0.0000  0.0000  0.0000  0.0000  0.0000  0.0000  0.0000  0.0000  0.0000 </r>
       </set>
       <set comment="band 3">
        <r>  0.0000  0.0000  0.9948  0.0000  0.0000  0.0000  0.0000  0.0000  0.0000 </r>
        <r>  0.0000  0.0000  0.0000  0.0000  0.0000  0.0000  0.0000  0.0000  0.0000 </r>
       </set>
       <set comment="band 4">
        <r>  0.0011  0.0018  0.0000  0.0008  0.0041  0.0000  0.0006  0.0000  0.0088 </r>
        <r>  0.6762  0.0000  0.0000  0.0000  0.0000  0.0000  0.0001  0.0000  0.0000 </r>
       </set>
       <set comment="band 5">
        <r>  0.0227  0.0001  0.0000  0.0001  0.1458  0.0000  0.3808  0.0000  0.1216 </r>
        <r>  0.0001  0.0460  0.0000  0.0446  0.0015  0.0000  0.0000  0.0000  0.0003 </r>
       </set>
       <set comment="band 6">
        <r>  0.0046  0.0005  0.0000  0.0007  0.4795  0.0000  0.1330  0.0000  0.1700 </r>
        <r>  0.0003  0.0363  0.0000  0.0132  0.0009  0.0000  0.0000  0.0000  0.0020 </r>
       </set>
       <set comment="band 7">
        <r>  0.0000  0.0000  0.0000  0.0000  0.0000  0.5889  0.0000  0.2378  0.0001 </r>
        <r>  0.0000  0.0000  0.0242  0.0000  0.0000  0.0000  0.0000  0.0000  0.0000 </r>
       </set>
       <set comment="band 8">
        <r>  0.0000  0.0000  0.0000  0.0000  0.0000  0.2554  0.0000  0.6309  0.0001 </r>
        <r>  0.0000  0.0000  0.0000  0.0000  0.0000  0.0004  0.0000  0.0007  0.0000 </r>
       </set>
       <set comment="band 9">
        <r>  0.0000  0.0003  0.0000  0.0000  0.1816  0.0002  0.1399  0.0000  0.5485 </r>
        <r>  0.0137  0.0017  0.0000  0.0020  0.0001  0.0000  0.0006  0.0000  0.0004 </r>
       </set>
       <set comment="band 10">
        <r>  0.0983  0.0009  0.0000  0.0005  0.0067  0.0000  0.2310  0.0000  0.0292 </r>
        <r>  0.0022  0.1476  0.0000  0.0257  0.0001  0.0000  0.0000  0.0000  0.0004 </r>
       </set>
       <set comment="band 11">
        <r>  0.0071  0.0068  0.0000  0.0120  0.0669  0.0000  0.0035  0.0000  0.0066 </r>
        <r>  0.0007  0.0700  0.0000  0.2615  0.0002  0.0000  0.0000  0.0000  0.0007 </r>
       </set>
       <set comment="band 12">
        <r>  0.0000  0.0000  0.0006  0.0000  0.0000  0.0532  0.0000  0.0242  0.0000 </r>
        <r>  0.0000  0.0000  0.4236  0.0000  0.0000  0.0000  0.0000  0.0000  0.0000 </r>
       </set>
       <set comment="band 13">
        <r>  0.1672  0.0036  0.0001  0.0022  0.0019  0.0000  0.0141  0.0000  0.0044 </r>
        <r>  0.0163  0.1122  0.0000  0.0988  0.0067  0.0000  0.0017  0.0000  0.0179 </r>
       </set>
       <set comment="band 14">
        <r>  0.0002  0.0000  0.0500  0.0000  0.0000  0.0013  0.0000  0.0006  0.0000 </r>
        <r>  0.0000  0.0002  0.0096  0.0002  0.0000  0.0204  0.0000  0.0067  0.0000 </r>
       </set>
       <set comment="band 15">
        <r>  0.0117  0.0078  0.0000  0.0068  0.0064  0.0000  0.0015  0.0000  0.0114 </r>
        <r>  0.0313  0.0404  0.0000  0.0135  0.0063  0.0000  0.0004  0.0000  0.0090 </r>
       </set>
       <set comment="band 16">
        <r>  0.0000  0.0000  0.0050  0.0000  0.0000  0.0115  0.0000  0.0119  0.0000 </r>
        <r>  0.0000  0.0000  0.0049  0.0000  0.0000  0.0089  0.0000  0.0224  0.0000 </r>
       </set>
      </set>
      <set comment="kpoint 84">
       <set comment="band 1">
        <r>  0.0000  0.0046  0.0000  0.9901  0.0000  0.0000  0.0000  0.0000  0.0000 </r>
        <r>  0.0000  0.0000  0.0000  0.0000  0.0000  0.0000  0.0000  0.0000  0.0000 </r>
       </set>
       <set comment="band 2">
        <r>  0.0000  0.9901  0.0000  0.0046  0.0000  0.0000  0.0000  0.0000  0.0000 </r>
        <r>  0.0000  0.0000  0.0000  0.0000  0.0000  0.0000  0.0000  0.0000  0.0000 </r>
       </set>
       <set comment="band 3">
        <r>  0.0000  0.0000  0.9948  0.0000  0.0000  0.0000  0.0000  0.0000  0.0000 </r>
        <r>  0.0000  0.0000  0.0000  0.0000  0.0000  0.0000  0.0000  0.0000  0.0000 </r>
       </set>
       <set comment="band 4">
        <r>  0.0013  0.0021  0.0000  0.0004  0.0020  0.0000  0.0008  0.0000  0.0107 </r>
        <r>  0.6758  0.0000  0.0000  0.0000  0.0000  0.0000  0.0001  0.0000  0.0000 </r>
       </set>
       <set comment="band 5">
        <r>  0.0196  0.0001  0.0000  0.0004  0.2704  0.0000  0.3429  0.0000  0.0486 </r>
        <r>  0.0004  0.0459  0.0000  0.0414  0.0016  0.0000  0.0000  0.0000  0.0002 </r>
       </set>
       <set comment="band 6">
        <r>  0.0077  0.0006  0.0000  0.0006  0.4451  0.0000  0.2199  0.0000  0.0873 </r>
        <r>  0.0006  0.0488  0.0000  0.0112  0.0007  0.0000  0.0000  0.0000  0.0017 </r>
       </set>
       <set comment="band 7">
        <r>  0.0000  0.0000  0.0000  0.0000  0.0000  0.7247  0.0000  0.1016  0.0002 </r>
        <r>  0.0000  0.0000  0.0239  0.0000  0.0000  0.0001  0.0000  0.0000  0.0000 </r>
       </set>
       <set comment="band 8">
        <r>  0.0000  0.0000  0.0000  0.0000  0.0005  0.1080  0.0006  0.7706  0.0074 </r>
        <r>  0.0001  0.0000  0.0001  0.0000  0.0000  0.0002  0.0000  0.0008  0.0000 </r>
       </set>
       <set comment="band 9">
        <r>  0.0001  0.0004  0.0000  0.0000  0.0807  0.0020  0.0594  0.0069  0.7140 </r>
        <r>  0.0131  0.0027  0.0000  0.0014  0.0000  0.0000  0.0006  0.0000  0.0010 </r>
       </set>
       <set comment="band 10">
        <r>  0.0924  0.0017  0.0000  0.0002  0.0007  0.0000  0.2628  0.0000  0.0153 </r>
        <r>  0.0007  0.1656  0.0000  0.0041  0.0000  0.0000  0.0000  0.0000  0.0003 </r>
       </set>
       <set comment="band 11">
        <r>  0.0080  0.0034  0.0000  0.0151  0.0865  0.0000  0.0026  0.0000  0.0004 </r>
        <r>  0.0012  0.0229  0.0000  0.3181  0.0001  0.0000  0.0001  0.0000  0.0006 </r>
       </set>
       <set comment="band 12">
        <r>  0.0000  0.0000  0.0007  0.0000  0.0000  0.0645  0.0000  0.0119  0.0000 </r>
        <r>  0.0000  0.0000  0.4231  0.0000  0.0000  0.0001  0.0000  0.0000  0.0000 </r>
       </set>
       <set comment="band 13">
        <r>  0.1562  0.0088  0.0000  0.0021  0.0021  0.0000  0.0099  0.0000  0.0127 </r>
        <r>  0.0267  0.0854  0.0000  0.0608  0.0018  0.0000  0.0030  0.0000  0.0229 </r>
       </set>
       <set comment="band 14">
        <r>  0.0000  0.0000  0.0479  0.0000  0.0000  0.0036  0.0000  0.0001  0.0000 </r>
        <r>  0.0000  0.0000  0.0074  0.0000  0.0000  0.0252  0.0000  0.0025  0.0000 </r>
       </set>
       <set comment="band 15">
        <r>  0.0139  0.0031  0.0000  0.0024  0.0016  0.0000  0.0051  0.0000  0.0053 </r>
        <r>  0.0182  0.0750  0.0000  0.0017  0.0039  0.0000  0.0035  0.0000  0.0029 </r>
       </set>
       <set comment="band 16">
        <r>  0.0000  0.0000  0.0054  0.0000  0.0000  0.0075  0.0000  0.0087  0.0000 </r>
        <r>  0.0000  0.0000  0.0174  0.0000  0.0000  0.0046  0.0000  0.0171  0.0000 </r>
       </set>
      </set>
      <set comment="kpoint 85">
       <set comment="band 1">
        <r>  0.0000  0.0036  0.0000  0.9911  0.0000  0.0000  0.0000  0.0000  0.0000 </r>
        <r>  0.0000  0.0000  0.0000  0.0000  0.0000  0.0000  0.0000  0.0000  0.0000 </r>
       </set>
       <set comment="band 2">
        <r>  0.0000  0.9911  0.0000  0.0036  0.0000  0.0000  0.0000  0.0000  0.0000 </r>
        <r>  0.0000  0.0000  0.0000  0.0000  0.0000  0.0000  0.0000  0.0000  0.0000 </r>
       </set>
       <set comment="band 3">
        <r>  0.0000  0.0000  0.9948  0.0000  0.0000  0.0000  0.0000  0.0000  0.0000 </r>
        <r>  0.0000  0.0000  0.0000  0.0000  0.0000  0.0000  0.0000  0.0000  0.0000 </r>
       </set>
       <set comment="band 4">
        <r>  0.0017  0.0024  0.0000  0.0001  0.0005  0.0000  0.0010  0.0000  0.0119 </r>
        <r>  0.6751  0.0000  0.0000  0.0000  0.0000  0.0000  0.0001  0.0000  0.0000 </r>
       </set>
       <set comment="band 5">
        <r>  0.0143  0.0002  0.0000  0.0006  0.4100  0.0000  0.2683  0.0000  0.0108 </r>
        <r>  0.0007  0.0419  0.0000  0.0381  0.0015  0.0000  0.0000  0.0000  0.0002 </r>
       </set>
       <set comment="band 6">
        <r>  0.0130  0.0007  0.0000  0.0006  0.3624  0.0000  0.3288  0.0000  0.0090 </r>
        <r>  0.0011  0.0639  0.0000  0.0133  0.0007  0.0000  0.0001  0.0000  0.0011 </r>
       </set>
       <set comment="band 7">
        <r>  0.0000  0.0000  0.0000  0.0000  0.0000  0.8019  0.0001  0.0244  0.0003 </r>
        <r>  0.0000  0.0000  0.0234  0.0000  0.0000  0.0002  0.0000  0.0000  0.0000 </r>
       </set>
       <set comment="band 8">
        <r>  0.0000  0.0003  0.0000  0.0000  0.0182  0.0002  0.0035  0.0001  0.8412 </r>
        <r>  0.0122  0.0014  0.0000  0.0006  0.0000  0.0000  0.0005  0.0000  0.0017 </r>
       </set>
       <set comment="band 9">
        <r>  0.0000  0.0000  0.0000  0.0000  0.0000  0.0266  0.0000  0.8623  0.0000 </r>
        <r>  0.0000  0.0000  0.0000  0.0000  0.0000  0.0001  0.0000  0.0009  0.0000 </r>
       </set>
       <set comment="band 10">
        <r>  0.0898  0.0018  0.0000  0.0001  0.0000  0.0000  0.2871  0.0000  0.0091 </r>
        <r>  0.0000  0.1627  0.0000  0.0006  0.0000  0.0000  0.0000  0.0000  0.0003 </r>
       </set>
       <set comment="band 11">
        <r>  0.0032  0.0010  0.0000  0.0179  0.0971  0.0000  0.0007  0.0000  0.0002 </r>
        <r>  0.0006  0.0054  0.0000  0.3554  0.0000  0.0000  0.0000  0.0000  0.0002 </r>
       </set>
       <set comment="band 12">
        <r>  0.0000  0.0000  0.0009  0.0000  0.0000  0.0715  0.0000  0.0032  0.0000 </r>
        <r>  0.0000  0.0000  0.4220  0.0000  0.0000  0.0001  0.0000  0.0000  0.0000 </r>
       </set>
       <set comment="band 13">
        <r>  0.1552  0.0124  0.0000  0.0009  0.0010  0.0000  0.0072  0.0000  0.0183 </r>
        <r>  0.0345  0.0756  0.0000  0.0188  0.0003  0.0000  0.0038  0.0000  0.0241 </r>
       </set>
       <set comment="band 14">
        <r>  0.0000  0.0000  0.0456  0.0000  0.0000  0.0053  0.0000  0.0000  0.0000 </r>
        <r>  0.0000  0.0000  0.0066  0.0000  0.0000  0.0275  0.0000  0.0006  0.0000 </r>
       </set>
       <set comment="band 15">
        <r>  0.0152  0.0010  0.0000  0.0005  0.0001  0.0000  0.0037  0.0000  0.0022 </r>
        <r>  0.0143  0.0834  0.0000  0.0002  0.0011  0.0000  0.0067  0.0000  0.0000 </r>
       </set>
       <set comment="band 16">
        <r>  0.0008  0.0036  0.0000  0.0004  0.0004  0.0000  0.0113  0.0000  0.0022 </r>
        <r>  0.0007  0.0408  0.0000  0.0001  0.0004  0.0000  0.0177  0.0000  0.0038 </r>
       </set>
      </set>
     </set>
    </set>
   </array>
  </projected>
 </calculation>
 <structure name="finalpos" >
  <crystal>
   <varray name="basis" >
    <v>       5.02497492       0.00000000       0.00000000 </v>
    <v>       2.51248746       4.35175593       0.00000000 </v>
    <v>       0.00000000       0.00000000      67.78155795 </v>
   </varray>
   <i name="volume">   1482.21080612 </i>
   <varray name="rec_basis" >
    <v>       0.19900597      -0.11489615       0.00000000 </v>
    <v>       0.00000000       0.22979230       0.00000000 </v>
    <v>       0.00000000       0.00000000       0.01475328 </v>
   </varray>
  </crystal>
  <varray name="positions" >
   <v>       0.99759950       0.33771153       0.24754869 </v>
   <v>       0.66395081       0.00516671       0.24766421 </v>
  </varray>
  <varray name="selective"  type="logical" >
   <v type="logical" >  T  T  T </v>
   <v type="logical" >  T  T  T </v>
  </varray>
  <nose>
   <v>      -3.00000000       0.00000000       0.00010000       0.00010000 </v>
  </nose>
 </structure>
</modeling>
