unknown system                          
           1
     5.024975    0.000000    0.000000
     2.512487    4.351756    0.000000
     0.000000    0.000000   67.781558
   Ag   Te
   1   1
Direct configuration=     1
   0.99759950  0.33771153  0.24754869
   0.66395081  0.00516671  0.24766421
