   2   2   1   0
  0.1980791E+02  0.3826437E-09  0.3826437E-09  0.3826437E-09  0.5000000E-15
  1.000000000000000E-004
  CAR 
 unknown system                          
     50.84775455     -8.59234605  301      5.72281151      1.00000000
     -8.592  0.0000E+00  0.0000E+00  0.0000E+00  0.0000E+00
     -8.394  0.0000E+00  0.0000E+00  0.0000E+00  0.0000E+00
     -8.196  0.0000E+00  0.0000E+00  0.0000E+00  0.0000E+00
     -7.998  0.0000E+00  0.0000E+00  0.0000E+00  0.0000E+00
     -7.800  0.0000E+00  0.0000E+00  0.0000E+00  0.0000E+00
     -7.602  0.0000E+00  0.0000E+00  0.0000E+00  0.0000E+00
     -7.404  0.0000E+00  0.0000E+00  0.0000E+00  0.0000E+00
     -7.205  0.0000E+00  0.0000E+00  0.0000E+00  0.0000E+00
     -7.007  0.0000E+00  0.0000E+00  0.0000E+00  0.0000E+00
     -6.809  0.0000E+00  0.0000E+00  0.0000E+00  0.0000E+00
     -6.611  0.0000E+00  0.0000E+00  0.0000E+00  0.0000E+00
     -6.413  0.0000E+00  0.0000E+00  0.0000E+00  0.0000E+00
     -6.215  0.0000E+00  0.0000E+00  0.0000E+00  0.0000E+00
     -6.017  0.0000E+00  0.0000E+00  0.0000E+00  0.0000E+00
     -5.818  0.5534E-01  0.5536E-01  0.7445E-02  0.7450E-02
     -5.620  0.9427E-01  0.9429E-01  0.2213E-01  0.2214E-01
     -5.422  0.1412E+00  0.1413E+00  0.4533E-01  0.4535E-01
     -5.224  0.1568E+00  0.1568E+00  0.7508E-01  0.7510E-01
     -5.026  0.1773E+00  0.1774E+00  0.1082E+00  0.1083E+00
     -4.828  0.1949E+00  0.1949E+00  0.1451E+00  0.1452E+00
     -4.630  0.2235E+00  0.2236E+00  0.1865E+00  0.1865E+00
     -4.432  0.2603E+00  0.2604E+00  0.2343E+00  0.2343E+00
     -4.233  0.3015E+00  0.3015E+00  0.2902E+00  0.2903E+00
     -4.035  0.3383E+00  0.3384E+00  0.3537E+00  0.3538E+00
     -3.837  0.3959E+00  0.3962E+00  0.4241E+00  0.4242E+00
     -3.639  0.4139E+00  0.4139E+00  0.5234E+00  0.5235E+00
     -3.441  0.4001E+00  0.4001E+00  0.6043E+00  0.6044E+00
     -3.243  0.3707E+00  0.3706E+00  0.6810E+00  0.6811E+00
     -3.045  0.3712E+00  0.3712E+00  0.7525E+00  0.7525E+00
     -2.846  0.3911E+00  0.3911E+00  0.8285E+00  0.8286E+00
     -2.648  0.5810E+00  0.5809E+00  0.9448E+00  0.9449E+00
     -2.450  0.0000E+00  0.0000E+00  0.1000E+01  0.1000E+01
     -2.252  0.0000E+00  0.0000E+00  0.1000E+01  0.1000E+01
     -2.054  0.0000E+00  0.0000E+00  0.1000E+01  0.1000E+01
     -1.856  0.0000E+00  0.0000E+00  0.1000E+01  0.1000E+01
     -1.658  0.0000E+00  0.0000E+00  0.1000E+01  0.1000E+01
     -1.460  0.0000E+00  0.0000E+00  0.1000E+01  0.1000E+01
     -1.261  0.0000E+00  0.0000E+00  0.1000E+01  0.1000E+01
     -1.063  0.0000E+00  0.0000E+00  0.1000E+01  0.1000E+01
     -0.865  0.7368E+00  0.7362E+00  0.1183E+01  0.1184E+01
     -0.667  0.5146E+00  0.5145E+00  0.1311E+01  0.1311E+01
     -0.469  0.4554E+00  0.4554E+00  0.1407E+01  0.1408E+01
     -0.271  0.3882E+00  0.3881E+00  0.1491E+01  0.1491E+01
     -0.073  0.3127E+00  0.3126E+00  0.1561E+01  0.1561E+01
      0.126  0.2415E+00  0.2414E+00  0.1615E+01  0.1615E+01
      0.324  0.2177E+00  0.2177E+00  0.1660E+01  0.1661E+01
      0.522  0.1957E+00  0.1957E+00  0.1701E+01  0.1701E+01
      0.720  0.1755E+00  0.1754E+00  0.1738E+01  0.1738E+01
      0.918  0.1570E+00  0.1569E+00  0.1771E+01  0.1771E+01
      1.116  0.1363E+00  0.1363E+00  0.1800E+01  0.1800E+01
      1.314  0.1163E+00  0.1163E+00  0.1825E+01  0.1825E+01
      1.512  0.1065E+00  0.1065E+00  0.1847E+01  0.1847E+01
      1.711  0.9704E-01  0.9703E-01  0.1867E+01  0.1867E+01
      1.909  0.5607E+00  0.5608E+00  0.1973E+01  0.1973E+01
      2.107  0.5758E+00  0.5758E+00  0.2086E+01  0.2086E+01
      2.305  0.5659E+00  0.5660E+00  0.2200E+01  0.2200E+01
      2.503  0.4869E+00  0.4870E+00  0.2319E+01  0.2319E+01
      2.701  0.4365E+00  0.4365E+00  0.2410E+01  0.2410E+01
      2.899  0.4042E+00  0.4042E+00  0.2493E+01  0.2493E+01
      3.098  0.8177E+00  0.8180E+00  0.2655E+01  0.2655E+01
      3.296  0.7489E+00  0.7491E+00  0.2828E+01  0.2828E+01
      3.494  0.7559E+00  0.7560E+00  0.2977E+01  0.2977E+01
      3.692  0.7422E+00  0.7423E+00  0.3130E+01  0.3130E+01
      3.890  0.6809E+00  0.6810E+00  0.3269E+01  0.3269E+01
      4.088  0.7518E+00  0.7518E+00  0.3422E+01  0.3422E+01
      4.286  0.6472E+00  0.6472E+00  0.3561E+01  0.3561E+01
      4.484  0.5123E+00  0.5122E+00  0.3683E+01  0.3683E+01
      4.683  0.4142E+00  0.4141E+00  0.3774E+01  0.3774E+01
      4.881  0.3982E+00  0.3980E+00  0.3862E+01  0.3862E+01
      5.079  0.2481E+00  0.2477E+00  0.3928E+01  0.3928E+01
      5.277  0.1282E+00  0.1281E+00  0.3961E+01  0.3961E+01
      5.475  0.7970E-01  0.7960E-01  0.3982E+01  0.3982E+01
      5.673  0.0000E+00  0.0000E+00  0.4000E+01  0.4000E+01
      5.871  0.0000E+00  0.0000E+00  0.4000E+01  0.4000E+01
      6.070  0.0000E+00  0.0000E+00  0.4000E+01  0.4000E+01
      6.268  0.0000E+00  0.0000E+00  0.4000E+01  0.4000E+01
      6.466  0.0000E+00  0.0000E+00  0.4000E+01  0.4000E+01
      6.664  0.0000E+00  0.0000E+00  0.4000E+01  0.4000E+01
      6.862  0.9055E-01  0.9046E-01  0.4016E+01  0.4016E+01
      7.060  0.1307E+00  0.1306E+00  0.4038E+01  0.4038E+01
      7.258  0.1782E+00  0.1782E+00  0.4068E+01  0.4068E+01
      7.456  0.2084E+00  0.2083E+00  0.4105E+01  0.4105E+01
      7.655  0.2748E+00  0.2747E+00  0.4152E+01  0.4152E+01
      7.853  0.4842E+00  0.4836E+00  0.4222E+01  0.4222E+01
      8.051  0.8531E+00  0.8527E+00  0.4369E+01  0.4369E+01
      8.249  0.1213E+01  0.1213E+01  0.4591E+01  0.4591E+01
      8.447  0.1022E+01  0.1022E+01  0.4840E+01  0.4840E+01
      8.645  0.6523E+00  0.6528E+00  0.5006E+01  0.5006E+01
      8.843  0.1477E+00  0.1476E+00  0.5097E+01  0.5097E+01
      9.042  0.2952E+00  0.2950E+00  0.5147E+01  0.5147E+01
      9.240  0.4592E+00  0.4591E+00  0.5221E+01  0.5221E+01
      9.438  0.1065E+01  0.1063E+01  0.5341E+01  0.5341E+01
      9.636  0.1261E+01  0.1262E+01  0.5632E+01  0.5631E+01
      9.834  0.5807E+00  0.5807E+00  0.5771E+01  0.5771E+01
     10.032  0.6525E+00  0.6525E+00  0.5895E+01  0.5894E+01
     10.230  0.6142E+00  0.6143E+00  0.6050E+01  0.6050E+01
     10.428  0.5260E+00  0.5261E+00  0.6169E+01  0.6169E+01
     10.627  0.4893E+00  0.4893E+00  0.6269E+01  0.6269E+01
     10.825  0.5388E+00  0.5388E+00  0.6411E+01  0.6411E+01
     11.023  0.6371E+00  0.6366E+00  0.6520E+01  0.6520E+01
     11.221  0.9015E+00  0.9014E+00  0.6674E+01  0.6674E+01
     11.419  0.4179E+00  0.4189E+00  0.6859E+01  0.6859E+01
     11.617  0.3174E+00  0.3175E+00  0.6925E+01  0.6925E+01
     11.815  0.2993E+00  0.2993E+00  0.6986E+01  0.6986E+01
     12.014  0.4793E+00  0.4792E+00  0.7060E+01  0.7060E+01
     12.212  0.5965E+00  0.5964E+00  0.7168E+01  0.7168E+01
     12.410  0.4628E+00  0.4627E+00  0.7265E+01  0.7265E+01
     12.608  0.5216E+00  0.5215E+00  0.7362E+01  0.7362E+01
     12.806  0.5694E+00  0.5693E+00  0.7471E+01  0.7471E+01
     13.004  0.6275E+00  0.6273E+00  0.7588E+01  0.7588E+01
     13.202  0.8140E+00  0.8139E+00  0.7732E+01  0.7732E+01
     13.400  0.8020E+00  0.8025E+00  0.7904E+01  0.7904E+01
     13.599  0.4392E+00  0.4393E+00  0.8043E+01  0.8043E+01
     13.797  0.3805E+00  0.3807E+00  0.8124E+01  0.8124E+01
     13.995  0.4119E+00  0.4118E+00  0.8198E+01  0.8198E+01
     14.193  0.5670E+00  0.5669E+00  0.8296E+01  0.8296E+01
     14.391  0.6376E+00  0.6374E+00  0.8469E+01  0.8469E+01
     14.589  0.7195E+00  0.7193E+00  0.8603E+01  0.8603E+01
     14.787  0.8050E+00  0.8046E+00  0.8758E+01  0.8758E+01
     14.986  0.8513E+00  0.8608E+00  0.8932E+01  0.8932E+01
     15.184  0.5422E+00  0.5421E+00  0.9040E+01  0.9040E+01
     15.382  0.5716E+00  0.5715E+00  0.9150E+01  0.9150E+01
     15.580  0.6088E+00  0.6087E+00  0.9267E+01  0.9267E+01
     15.778  0.8468E+00  0.8469E+00  0.9403E+01  0.9403E+01
     15.976  0.7592E+00  0.7594E+00  0.9555E+01  0.9555E+01
     16.174  0.6414E+00  0.6415E+00  0.9713E+01  0.9713E+01
     16.372  0.6287E+00  0.6287E+00  0.9839E+01  0.9839E+01
     16.571  0.5456E+00  0.5456E+00  0.9958E+01  0.9958E+01
     16.769  0.5359E+00  0.5358E+00  0.1007E+02  0.1007E+02
     16.967  0.5606E+00  0.5605E+00  0.1021E+02  0.1021E+02
     17.165  0.2522E+00  0.2521E+00  0.1031E+02  0.1031E+02
     17.363  0.2799E+00  0.2798E+00  0.1037E+02  0.1037E+02
     17.561  0.3513E+00  0.3511E+00  0.1043E+02  0.1043E+02
     17.759  0.5393E+00  0.5388E+00  0.1052E+02  0.1052E+02
     17.958  0.7909E+00  0.7906E+00  0.1065E+02  0.1065E+02
     18.156  0.1140E+01  0.1140E+01  0.1084E+02  0.1084E+02
     18.354  0.8244E+00  0.8245E+00  0.1115E+02  0.1115E+02
     18.552  0.4073E+00  0.4090E+00  0.1128E+02  0.1128E+02
     18.750  0.4930E+00  0.4930E+00  0.1138E+02  0.1138E+02
     18.948  0.5795E+00  0.5796E+00  0.1148E+02  0.1148E+02
     19.146  0.7851E+00  0.7848E+00  0.1166E+02  0.1166E+02
     19.345  0.6646E+00  0.6644E+00  0.1180E+02  0.1180E+02
     19.543  0.7067E+00  0.7065E+00  0.1193E+02  0.1193E+02
     19.741  0.7525E+00  0.7523E+00  0.1208E+02  0.1208E+02
     19.939  0.8010E+00  0.8009E+00  0.1223E+02  0.1223E+02
     20.137  0.7303E+00  0.7305E+00  0.1238E+02  0.1238E+02
     20.335  0.6095E+00  0.6094E+00  0.1252E+02  0.1252E+02
     20.533  0.7019E+00  0.7021E+00  0.1267E+02  0.1267E+02
     20.731  0.7178E+00  0.7178E+00  0.1281E+02  0.1281E+02
     20.930  0.1004E+01  0.1003E+01  0.1297E+02  0.1297E+02
     21.128  0.1506E+01  0.1505E+01  0.1324E+02  0.1324E+02
     21.326  0.1265E+01  0.1266E+01  0.1352E+02  0.1352E+02
     21.524  0.5252E+00  0.5255E+00  0.1370E+02  0.1370E+02
     21.722  0.4725E+00  0.4727E+00  0.1380E+02  0.1380E+02
     21.920  0.9150E+00  0.9135E+00  0.1390E+02  0.1390E+02
     22.118  0.1682E+00  0.1680E+00  0.1406E+02  0.1406E+02
     22.317  0.2380E+00  0.2379E+00  0.1410E+02  0.1410E+02
     22.515  0.4236E+00  0.4232E+00  0.1416E+02  0.1416E+02
     22.713  0.6141E+00  0.6140E+00  0.1427E+02  0.1427E+02
     22.911  0.6802E+00  0.6801E+00  0.1440E+02  0.1440E+02
     23.109  0.7392E+00  0.7391E+00  0.1454E+02  0.1454E+02
     23.307  0.8088E+00  0.8087E+00  0.1470E+02  0.1470E+02
     23.505  0.7979E+00  0.7981E+00  0.1486E+02  0.1486E+02
     23.703  0.3892E+00  0.3893E+00  0.1499E+02  0.1499E+02
     23.902  0.4109E+00  0.4109E+00  0.1507E+02  0.1507E+02
     24.100  0.4512E+00  0.4513E+00  0.1515E+02  0.1515E+02
     24.298  0.7399E+00  0.7401E+00  0.1532E+02  0.1532E+02
     24.496  0.9818E+00  0.9821E+00  0.1565E+02  0.1565E+02
     24.694  0.1002E+01  0.1003E+01  0.1585E+02  0.1585E+02
     24.892  0.1483E+01  0.1483E+01  0.1619E+02  0.1619E+02
     25.090  0.1180E+01  0.1180E+01  0.1646E+02  0.1646E+02
     25.289  0.7798E+00  0.7806E+00  0.1666E+02  0.1666E+02
     25.487  0.8532E+00  0.8533E+00  0.1687E+02  0.1687E+02
     25.685  0.7250E+00  0.7252E+00  0.1703E+02  0.1703E+02
     25.883  0.5885E+00  0.5886E+00  0.1716E+02  0.1716E+02
     26.081  0.4563E+00  0.4563E+00  0.1726E+02  0.1726E+02
     26.279  0.4155E+00  0.4155E+00  0.1735E+02  0.1735E+02
     26.477  0.3646E+00  0.3646E+00  0.1743E+02  0.1743E+02
     26.675  0.3599E+00  0.3598E+00  0.1750E+02  0.1750E+02
     26.874  0.5462E+00  0.5457E+00  0.1758E+02  0.1758E+02
     27.072  0.7866E+00  0.7850E+00  0.1771E+02  0.1771E+02
     27.270  0.7153E+00  0.7153E+00  0.1790E+02  0.1790E+02
     27.468  0.7378E+00  0.7378E+00  0.1804E+02  0.1804E+02
     27.666  0.1006E+01  0.1005E+01  0.1825E+02  0.1825E+02
     27.864  0.1708E+01  0.1707E+01  0.1852E+02  0.1852E+02
     28.062  0.8129E+00  0.8126E+00  0.1894E+02  0.1894E+02
     28.261  0.8404E+00  0.8405E+00  0.1911E+02  0.1910E+02
     28.459  0.6954E+00  0.6956E+00  0.1927E+02  0.1927E+02
     28.657  0.6069E+00  0.6072E+00  0.1940E+02  0.1940E+02
     28.855  0.2740E+01  0.2739E+01  0.1959E+02  0.1959E+02
     29.053  0.9264E+00  0.9264E+00  0.1977E+02  0.1977E+02
     29.251  0.6923E+00  0.6924E+00  0.1993E+02  0.1993E+02
     29.449  0.5862E+00  0.5863E+00  0.2006E+02  0.2006E+02
     29.647  0.5801E+00  0.5801E+00  0.2018E+02  0.2018E+02
     29.846  0.5249E+00  0.5248E+00  0.2029E+02  0.2029E+02
     30.044  0.4689E+00  0.4688E+00  0.2039E+02  0.2039E+02
     30.242  0.5617E+00  0.5616E+00  0.2053E+02  0.2053E+02
     30.440  0.7308E+00  0.7306E+00  0.2065E+02  0.2065E+02
     30.638  0.8414E+00  0.8411E+00  0.2081E+02  0.2081E+02
     30.836  0.6261E+00  0.6260E+00  0.2098E+02  0.2098E+02
     31.034  0.6307E+00  0.6306E+00  0.2110E+02  0.2110E+02
     31.233  0.7076E+00  0.7075E+00  0.2126E+02  0.2126E+02
     31.431  0.7357E+00  0.7356E+00  0.2140E+02  0.2140E+02
     31.629  0.8072E+00  0.8068E+00  0.2155E+02  0.2155E+02
     31.827  0.8676E+00  0.8674E+00  0.2172E+02  0.2172E+02
     32.025  0.1015E+01  0.1014E+01  0.2192E+02  0.2192E+02
     32.223  0.1013E+01  0.1014E+01  0.2212E+02  0.2212E+02
     32.421  0.1499E+01  0.1500E+01  0.2235E+02  0.2235E+02
     32.619  0.8453E+00  0.8456E+00  0.2256E+02  0.2256E+02
     32.818  0.8477E+00  0.8477E+00  0.2273E+02  0.2273E+02
     33.016  0.8171E+00  0.8170E+00  0.2289E+02  0.2289E+02
     33.214  0.8229E+00  0.8228E+00  0.2305E+02  0.2305E+02
     33.412  0.9894E+00  0.9884E+00  0.2323E+02  0.2323E+02
     33.610  0.9781E+00  0.9793E+00  0.2343E+02  0.2343E+02
     33.808  0.3912E+00  0.3912E+00  0.2357E+02  0.2357E+02
     34.006  0.3373E+00  0.3374E+00  0.2364E+02  0.2364E+02
     34.205  0.9942E+00  0.9923E+00  0.2376E+02  0.2376E+02
     34.403  0.9151E+00  0.9155E+00  0.2399E+02  0.2399E+02
     34.601  0.7265E+00  0.7269E+00  0.2414E+02  0.2414E+02
     34.799  0.6367E+00  0.6371E+00  0.2428E+02  0.2428E+02
     34.997  0.9596E+00  0.9588E+00  0.2443E+02  0.2443E+02
     35.195  0.1066E+01  0.1066E+01  0.2467E+02  0.2467E+02
     35.393  0.1068E+01  0.1068E+01  0.2488E+02  0.2488E+02
     35.591  0.1059E+01  0.1059E+01  0.2510E+02  0.2510E+02
     35.790  0.1159E+01  0.1160E+01  0.2533E+02  0.2533E+02
     35.988  0.8240E+00  0.8248E+00  0.2552E+02  0.2552E+02
     36.186  0.6552E+00  0.6554E+00  0.2566E+02  0.2566E+02
     36.384  0.6833E+00  0.6830E+00  0.2579E+02  0.2579E+02
     36.582  0.8255E+00  0.8253E+00  0.2595E+02  0.2594E+02
     36.780  0.1051E+01  0.1051E+01  0.2613E+02  0.2613E+02
     36.978  0.1232E+01  0.1232E+01  0.2639E+02  0.2639E+02
     37.177  0.1215E+01  0.1215E+01  0.2663E+02  0.2663E+02
     37.375  0.9969E+00  0.9970E+00  0.2687E+02  0.2687E+02
     37.573  0.1418E+01  0.1415E+01  0.2714E+02  0.2714E+02
     37.771  0.7469E+00  0.7471E+00  0.2731E+02  0.2731E+02
     37.969  0.4833E+00  0.4834E+00  0.2743E+02  0.2743E+02
     38.167  0.6245E+00  0.6243E+00  0.2756E+02  0.2756E+02
     38.365  0.7711E+00  0.7710E+00  0.2770E+02  0.2770E+02
     38.563  0.8345E+00  0.8344E+00  0.2786E+02  0.2786E+02
     38.762  0.1219E+01  0.1218E+01  0.2808E+02  0.2808E+02
     38.960  0.1623E+01  0.1622E+01  0.2837E+02  0.2837E+02
     39.158  0.1396E+01  0.1397E+01  0.2868E+02  0.2868E+02
     39.356  0.1393E+01  0.1394E+01  0.2896E+02  0.2896E+02
     39.554  0.1054E+01  0.1055E+01  0.2920E+02  0.2920E+02
     39.752  0.6755E+00  0.6753E+00  0.2937E+02  0.2937E+02
     39.950  0.7142E+00  0.7139E+00  0.2951E+02  0.2951E+02
     40.149  0.6232E+00  0.6233E+00  0.2964E+02  0.2964E+02
     40.347  0.5841E+00  0.5843E+00  0.2976E+02  0.2976E+02
     40.545  0.5480E+00  0.5481E+00  0.2989E+02  0.2989E+02
     40.743  0.7518E+00  0.7516E+00  0.3005E+02  0.3005E+02
     40.941  0.8394E+00  0.8391E+00  0.3020E+02  0.3020E+02
     41.139  0.9566E+00  0.9566E+00  0.3038E+02  0.3038E+02
     41.337  0.8017E+00  0.8021E+00  0.3056E+02  0.3056E+02
     41.535  0.6828E+00  0.6830E+00  0.3070E+02  0.3070E+02
     41.734  0.6446E+00  0.6448E+00  0.3083E+02  0.3083E+02
     41.932  0.5568E+00  0.5571E+00  0.3096E+02  0.3096E+02
     42.130  0.9168E+00  0.9166E+00  0.3110E+02  0.3110E+02
     42.328  0.9631E+00  0.9631E+00  0.3129E+02  0.3129E+02
     42.526  0.9359E+00  0.9360E+00  0.3148E+02  0.3148E+02
     42.724  0.1017E+01  0.1016E+01  0.3169E+02  0.3169E+02
     42.922  0.1015E+01  0.1014E+01  0.3188E+02  0.3188E+02
     43.121  0.7195E+00  0.7188E+00  0.3210E+02  0.3210E+02
     43.319  0.8799E+00  0.8796E+00  0.3226E+02  0.3226E+02
     43.517  0.7351E+00  0.7353E+00  0.3244E+02  0.3244E+02
     43.715  0.8353E+00  0.8342E+00  0.3260E+02  0.3260E+02
     43.913  0.8145E+00  0.8146E+00  0.3278E+02  0.3278E+02
     44.111  0.8344E+00  0.8345E+00  0.3294E+02  0.3294E+02
     44.309  0.8458E+00  0.8459E+00  0.3311E+02  0.3311E+02
     44.507  0.9805E+00  0.9803E+00  0.3328E+02  0.3328E+02
     44.706  0.8693E+00  0.8690E+00  0.3347E+02  0.3347E+02
     44.904  0.1074E+01  0.1073E+01  0.3368E+02  0.3368E+02
     45.102  0.1279E+01  0.1281E+01  0.3396E+02  0.3396E+02
     45.300  0.1028E+01  0.1028E+01  0.3417E+02  0.3417E+02
     45.498  0.6587E+00  0.6587E+00  0.3438E+02  0.3438E+02
     45.696  0.8525E+00  0.8526E+00  0.3454E+02  0.3454E+02
     45.894  0.7454E+00  0.7455E+00  0.3470E+02  0.3470E+02
     46.093  0.2368E+00  0.2360E+00  0.3489E+02  0.3489E+02
     46.291  0.7413E+00  0.7394E+00  0.3499E+02  0.3499E+02
     46.489  0.1052E+01  0.1051E+01  0.3519E+02  0.3519E+02
     46.687  0.1104E+01  0.1104E+01  0.3539E+02  0.3539E+02
     46.885  0.1241E+01  0.1241E+01  0.3564E+02  0.3564E+02
     47.083  0.1126E+01  0.1130E+01  0.3588E+02  0.3588E+02
     47.281  0.7212E-01  0.7222E-01  0.3595E+02  0.3595E+02
     47.479  0.5962E-01  0.5967E-01  0.3596E+02  0.3596E+02
     47.678  0.4840E-01  0.4842E-01  0.3598E+02  0.3598E+02
     47.876  0.3849E-01  0.3847E-01  0.3598E+02  0.3598E+02
     48.074  0.2986E-01  0.2983E-01  0.3599E+02  0.3599E+02
     48.272  0.0000E+00  0.0000E+00  0.3600E+02  0.3600E+02
     48.470  0.0000E+00  0.0000E+00  0.3600E+02  0.3600E+02
     48.668  0.0000E+00  0.0000E+00  0.3600E+02  0.3600E+02
     48.866  0.0000E+00  0.0000E+00  0.3600E+02  0.3600E+02
     49.065  0.0000E+00  0.0000E+00  0.3600E+02  0.3600E+02
     49.263  0.0000E+00  0.0000E+00  0.3600E+02  0.3600E+02
     49.461  0.0000E+00  0.0000E+00  0.3600E+02  0.3600E+02
     49.659  0.0000E+00  0.0000E+00  0.3600E+02  0.3600E+02
     49.857  0.0000E+00  0.0000E+00  0.3600E+02  0.3600E+02
     50.055  0.0000E+00  0.0000E+00  0.3600E+02  0.3600E+02
     50.253  0.0000E+00  0.0000E+00  0.3600E+02  0.3600E+02
     50.451  0.0000E+00  0.0000E+00  0.3600E+02  0.3600E+02
     50.650  0.0000E+00  0.0000E+00  0.3600E+02  0.3600E+02
     50.848  0.0000E+00  0.0000E+00  0.3600E+02  0.3600E+02
     50.84775455     -8.59234605  301      5.72281151      1.00000000
     -8.592  0.0000E+00  0.0000E+00  0.0000E+00  0.0000E+00  0.0000E+00  0.0000E+00  0.0000E+00  0.0000E+00  0.0000E+00  0.0000E+00  0.0000E+00  0.0000E+00  0.0000E+00  0.0000E+00  0.0000E+00  0.0000E+00  0.0000E+00  0.0000E+00
     -8.394  0.0000E+00  0.0000E+00  0.0000E+00  0.0000E+00  0.0000E+00  0.0000E+00  0.0000E+00  0.0000E+00  0.0000E+00  0.0000E+00  0.0000E+00  0.0000E+00  0.0000E+00  0.0000E+00  0.0000E+00  0.0000E+00  0.0000E+00  0.0000E+00
     -8.196  0.0000E+00  0.0000E+00  0.0000E+00  0.0000E+00  0.0000E+00  0.0000E+00  0.0000E+00  0.0000E+00  0.0000E+00  0.0000E+00  0.0000E+00  0.0000E+00  0.0000E+00  0.0000E+00  0.0000E+00  0.0000E+00  0.0000E+00  0.0000E+00
     -7.998  0.0000E+00  0.0000E+00  0.0000E+00  0.0000E+00  0.0000E+00  0.0000E+00  0.0000E+00  0.0000E+00  0.0000E+00  0.0000E+00  0.0000E+00  0.0000E+00  0.0000E+00  0.0000E+00  0.0000E+00  0.0000E+00  0.0000E+00  0.0000E+00
     -7.800  0.0000E+00  0.0000E+00  0.0000E+00  0.0000E+00  0.0000E+00  0.0000E+00  0.0000E+00  0.0000E+00  0.0000E+00  0.0000E+00  0.0000E+00  0.0000E+00  0.0000E+00  0.0000E+00  0.0000E+00  0.0000E+00  0.0000E+00  0.0000E+00
     -7.602  0.0000E+00  0.0000E+00  0.0000E+00  0.0000E+00  0.0000E+00  0.0000E+00  0.0000E+00  0.0000E+00  0.0000E+00  0.0000E+00  0.0000E+00  0.0000E+00  0.0000E+00  0.0000E+00  0.0000E+00  0.0000E+00  0.0000E+00  0.0000E+00
     -7.404  0.0000E+00  0.0000E+00  0.0000E+00  0.0000E+00  0.0000E+00  0.0000E+00  0.0000E+00  0.0000E+00  0.0000E+00  0.0000E+00  0.0000E+00  0.0000E+00  0.0000E+00  0.0000E+00  0.0000E+00  0.0000E+00  0.0000E+00  0.0000E+00
     -7.205  0.0000E+00  0.0000E+00  0.0000E+00  0.0000E+00  0.0000E+00  0.0000E+00  0.0000E+00  0.0000E+00  0.0000E+00  0.0000E+00  0.0000E+00  0.0000E+00  0.0000E+00  0.0000E+00  0.0000E+00  0.0000E+00  0.0000E+00  0.0000E+00
     -7.007  0.0000E+00  0.0000E+00  0.0000E+00  0.0000E+00  0.0000E+00  0.0000E+00  0.0000E+00  0.0000E+00  0.0000E+00  0.0000E+00  0.0000E+00  0.0000E+00  0.0000E+00  0.0000E+00  0.0000E+00  0.0000E+00  0.0000E+00  0.0000E+00
     -6.809  0.0000E+00  0.0000E+00  0.0000E+00  0.0000E+00  0.0000E+00  0.0000E+00  0.0000E+00  0.0000E+00  0.0000E+00  0.0000E+00  0.0000E+00  0.0000E+00  0.0000E+00  0.0000E+00  0.0000E+00  0.0000E+00  0.0000E+00  0.0000E+00
     -6.611  0.0000E+00  0.0000E+00  0.0000E+00  0.0000E+00  0.0000E+00  0.0000E+00  0.0000E+00  0.0000E+00  0.0000E+00  0.0000E+00  0.0000E+00  0.0000E+00  0.0000E+00  0.0000E+00  0.0000E+00  0.0000E+00  0.0000E+00  0.0000E+00
     -6.413  0.0000E+00  0.0000E+00  0.0000E+00  0.0000E+00  0.0000E+00  0.0000E+00  0.0000E+00  0.0000E+00  0.0000E+00  0.0000E+00  0.0000E+00  0.0000E+00  0.0000E+00  0.0000E+00  0.0000E+00  0.0000E+00  0.0000E+00  0.0000E+00
     -6.215  0.0000E+00  0.0000E+00  0.0000E+00  0.0000E+00  0.0000E+00  0.0000E+00  0.0000E+00  0.0000E+00  0.0000E+00  0.0000E+00  0.0000E+00  0.0000E+00  0.0000E+00  0.0000E+00  0.0000E+00  0.0000E+00  0.0000E+00  0.0000E+00
     -6.017  0.0000E+00  0.0000E+00  0.0000E+00  0.0000E+00  0.0000E+00  0.0000E+00  0.0000E+00  0.0000E+00  0.0000E+00  0.0000E+00  0.0000E+00  0.0000E+00  0.0000E+00  0.0000E+00  0.0000E+00  0.0000E+00  0.0000E+00  0.0000E+00
     -5.818  0.1174E-01  0.1175E-01  0.1008E-03  0.1009E-03  0.5041E-04  0.5044E-04  0.9827E-04  0.9832E-04  0.0000E+00  0.0000E+00  0.0000E+00  0.0000E+00  0.0000E+00  0.0000E+00  0.0000E+00  0.0000E+00  0.0000E+00  0.0000E+00
     -5.620  0.1995E-01  0.1996E-01  0.2273E-03  0.2274E-03  0.1136E-03  0.1137E-03  0.2228E-03  0.2229E-03  0.0000E+00  0.0000E+00  0.0000E+00  0.0000E+00  0.0000E+00  0.0000E+00  0.0000E+00  0.0000E+00  0.0000E+00  0.0000E+00
     -5.422  0.2985E-01  0.2986E-01  0.3906E-03  0.3908E-03  0.1953E-03  0.1954E-03  0.3910E-03  0.3911E-03  0.0000E+00  0.0000E+00  0.0000E+00  0.0000E+00  0.0000E+00  0.0000E+00  0.0000E+00  0.0000E+00  0.0000E+00  0.0000E+00
     -5.224  0.3299E-01  0.3300E-01  0.5064E-03  0.5066E-03  0.2397E-03  0.2397E-03  0.8135E-03  0.8137E-03  0.0000E+00  0.0000E+00  0.0000E+00  0.0000E+00  0.0000E+00  0.0000E+00  0.0000E+00  0.0000E+00  0.0000E+00  0.0000E+00
     -5.026  0.3726E-01  0.3727E-01  0.6841E-03  0.6843E-03  0.2834E-03  0.2835E-03  0.1111E-02  0.1111E-02  0.0000E+00  0.0000E+00  0.0000E+00  0.0000E+00  0.0000E+00  0.0000E+00  0.0000E+00  0.0000E+00  0.0000E+00  0.0000E+00
     -4.828  0.4091E-01  0.4092E-01  0.9107E-03  0.9110E-03  0.3325E-03  0.3326E-03  0.1377E-02  0.1377E-02  0.0000E+00  0.0000E+00  0.0000E+00  0.0000E+00  0.0000E+00  0.0000E+00  0.0000E+00  0.0000E+00  0.0000E+00  0.0000E+00
     -4.630  0.4695E-01  0.4696E-01  0.1287E-02  0.1288E-02  0.3942E-03  0.3943E-03  0.1643E-02  0.1643E-02  0.0000E+00  0.0000E+00  0.0000E+00  0.0000E+00  0.0000E+00  0.0000E+00  0.0000E+00  0.0000E+00  0.0000E+00  0.0000E+00
     -4.432  0.5475E-01  0.5476E-01  0.1776E-02  0.1776E-02  0.4733E-03  0.4735E-03  0.1947E-02  0.1947E-02  0.0000E+00  0.0000E+00  0.0000E+00  0.0000E+00  0.0000E+00  0.0000E+00  0.0000E+00  0.0000E+00  0.0000E+00  0.0000E+00
     -4.233  0.6356E-01  0.6358E-01  0.2337E-02  0.2337E-02  0.6469E-03  0.6472E-03  0.2315E-02  0.2316E-02  0.0000E+00  0.0000E+00  0.0000E+00  0.0000E+00  0.0000E+00  0.0000E+00  0.0000E+00  0.0000E+00  0.0000E+00  0.0000E+00
     -4.035  0.7152E-01  0.7154E-01  0.2811E-02  0.2812E-02  0.8829E-03  0.8833E-03  0.2689E-02  0.2690E-02  0.0000E+00  0.0000E+00  0.0000E+00  0.0000E+00  0.0000E+00  0.0000E+00  0.0000E+00  0.0000E+00  0.0000E+00  0.0000E+00
     -3.837  0.8399E-01  0.8405E-01  0.3608E-02  0.3611E-02  0.1239E-02  0.1240E-02  0.3269E-02  0.3271E-02  0.0000E+00  0.0000E+00  0.0000E+00  0.0000E+00  0.0000E+00  0.0000E+00  0.0000E+00  0.0000E+00  0.0000E+00  0.0000E+00
     -3.639  0.8777E-01  0.8778E-01  0.4079E-02  0.4080E-02  0.1544E-02  0.1544E-02  0.3798E-02  0.3798E-02  0.0000E+00  0.0000E+00  0.0000E+00  0.0000E+00  0.0000E+00  0.0000E+00  0.0000E+00  0.0000E+00  0.0000E+00  0.0000E+00
     -3.441  0.8475E-01  0.8475E-01  0.3883E-02  0.3883E-02  0.1708E-02  0.1708E-02  0.4075E-02  0.4075E-02  0.0000E+00  0.0000E+00  0.0000E+00  0.0000E+00  0.0000E+00  0.0000E+00  0.0000E+00  0.0000E+00  0.0000E+00  0.0000E+00
     -3.243  0.7830E-01  0.7829E-01  0.3562E-02  0.3561E-02  0.1806E-02  0.1807E-02  0.4118E-02  0.4118E-02  0.0000E+00  0.0000E+00  0.0000E+00  0.0000E+00  0.0000E+00  0.0000E+00  0.0000E+00  0.0000E+00  0.0000E+00  0.0000E+00
     -3.045  0.7819E-01  0.7821E-01  0.3397E-02  0.3397E-02  0.2085E-02  0.2086E-02  0.4610E-02  0.4611E-02  0.0000E+00  0.0000E+00  0.0000E+00  0.0000E+00  0.0000E+00  0.0000E+00  0.0000E+00  0.0000E+00  0.0000E+00  0.0000E+00
     -2.846  0.8218E-01  0.8219E-01  0.3361E-02  0.3361E-02  0.2516E-02  0.2516E-02  0.5364E-02  0.5365E-02  0.0000E+00  0.0000E+00  0.0000E+00  0.0000E+00  0.0000E+00  0.0000E+00  0.0000E+00  0.0000E+00  0.0000E+00  0.0000E+00
     -2.648  0.1211E+00  0.1211E+00  0.4791E-02  0.4792E-02  0.4782E-02  0.4781E-02  0.8977E-02  0.8978E-02  0.0000E+00  0.0000E+00  0.0000E+00  0.0000E+00  0.0000E+00  0.0000E+00  0.0000E+00  0.0000E+00  0.0000E+00  0.0000E+00
     -2.450  0.0000E+00  0.0000E+00  0.0000E+00  0.0000E+00  0.0000E+00  0.0000E+00  0.0000E+00  0.0000E+00  0.0000E+00  0.0000E+00  0.0000E+00  0.0000E+00  0.0000E+00  0.0000E+00  0.0000E+00  0.0000E+00  0.0000E+00  0.0000E+00
     -2.252  0.0000E+00  0.0000E+00  0.0000E+00  0.0000E+00  0.0000E+00  0.0000E+00  0.0000E+00  0.0000E+00  0.0000E+00  0.0000E+00  0.0000E+00  0.0000E+00  0.0000E+00  0.0000E+00  0.0000E+00  0.0000E+00  0.0000E+00  0.0000E+00
     -2.054  0.0000E+00  0.0000E+00  0.0000E+00  0.0000E+00  0.0000E+00  0.0000E+00  0.0000E+00  0.0000E+00  0.0000E+00  0.0000E+00  0.0000E+00  0.0000E+00  0.0000E+00  0.0000E+00  0.0000E+00  0.0000E+00  0.0000E+00  0.0000E+00
     -1.856  0.0000E+00  0.0000E+00  0.0000E+00  0.0000E+00  0.0000E+00  0.0000E+00  0.0000E+00  0.0000E+00  0.0000E+00  0.0000E+00  0.0000E+00  0.0000E+00  0.0000E+00  0.0000E+00  0.0000E+00  0.0000E+00  0.0000E+00  0.0000E+00
     -1.658  0.0000E+00  0.0000E+00  0.0000E+00  0.0000E+00  0.0000E+00  0.0000E+00  0.0000E+00  0.0000E+00  0.0000E+00  0.0000E+00  0.0000E+00  0.0000E+00  0.0000E+00  0.0000E+00  0.0000E+00  0.0000E+00  0.0000E+00  0.0000E+00
     -1.460  0.0000E+00  0.0000E+00  0.0000E+00  0.0000E+00  0.0000E+00  0.0000E+00  0.0000E+00  0.0000E+00  0.0000E+00  0.0000E+00  0.0000E+00  0.0000E+00  0.0000E+00  0.0000E+00  0.0000E+00  0.0000E+00  0.0000E+00  0.0000E+00
     -1.261  0.0000E+00  0.0000E+00  0.0000E+00  0.0000E+00  0.0000E+00  0.0000E+00  0.0000E+00  0.0000E+00  0.0000E+00  0.0000E+00  0.0000E+00  0.0000E+00  0.0000E+00  0.0000E+00  0.0000E+00  0.0000E+00  0.0000E+00  0.0000E+00
     -1.063  0.0000E+00  0.0000E+00  0.0000E+00  0.0000E+00  0.0000E+00  0.0000E+00  0.0000E+00  0.0000E+00  0.0000E+00  0.0000E+00  0.0000E+00  0.0000E+00  0.0000E+00  0.0000E+00  0.0000E+00  0.0000E+00  0.0000E+00  0.0000E+00
     -0.865  0.1200E+00  0.1199E+00  0.1673E-01  0.1673E-01  0.1093E-01  0.1092E-01  0.2394E-01  0.2392E-01  0.0000E+00  0.0000E+00  0.0000E+00  0.0000E+00  0.0000E+00  0.0000E+00  0.0000E+00  0.0000E+00  0.0000E+00  0.0000E+00
     -0.667  0.7714E-01  0.7714E-01  0.1615E-01  0.1615E-01  0.6899E-02  0.6899E-02  0.1691E-01  0.1691E-01  0.0000E+00  0.0000E+00  0.0000E+00  0.0000E+00  0.0000E+00  0.0000E+00  0.0000E+00  0.0000E+00  0.0000E+00  0.0000E+00
     -0.469  0.6750E-01  0.6750E-01  0.1529E-01  0.1529E-01  0.6051E-02  0.6051E-02  0.1481E-01  0.1481E-01  0.0000E+00  0.0000E+00  0.0000E+00  0.0000E+00  0.0000E+00  0.0000E+00  0.0000E+00  0.0000E+00  0.0000E+00  0.0000E+00
     -0.271  0.5695E-01  0.5694E-01  0.1374E-01  0.1374E-01  0.5127E-02  0.5127E-02  0.1263E-01  0.1263E-01  0.0000E+00  0.0000E+00  0.0000E+00  0.0000E+00  0.0000E+00  0.0000E+00  0.0000E+00  0.0000E+00  0.0000E+00  0.0000E+00
     -0.073  0.4547E-01  0.4547E-01  0.1150E-01  0.1150E-01  0.4128E-02  0.4127E-02  0.1038E-01  0.1038E-01  0.0000E+00  0.0000E+00  0.0000E+00  0.0000E+00  0.0000E+00  0.0000E+00  0.0000E+00  0.0000E+00  0.0000E+00  0.0000E+00
      0.126  0.3447E-01  0.3447E-01  0.8771E-02  0.8771E-02  0.3197E-02  0.3197E-02  0.8889E-02  0.8889E-02  0.0000E+00  0.0000E+00  0.0000E+00  0.0000E+00  0.0000E+00  0.0000E+00  0.0000E+00  0.0000E+00  0.0000E+00  0.0000E+00
      0.324  0.3068E-01  0.3068E-01  0.7994E-02  0.7993E-02  0.2875E-02  0.2875E-02  0.8391E-02  0.8391E-02  0.0000E+00  0.0000E+00  0.0000E+00  0.0000E+00  0.0000E+00  0.0000E+00  0.0000E+00  0.0000E+00  0.0000E+00  0.0000E+00
      0.522  0.2717E-01  0.2717E-01  0.7228E-02  0.7228E-02  0.2584E-02  0.2584E-02  0.7957E-02  0.7957E-02  0.0000E+00  0.0000E+00  0.0000E+00  0.0000E+00  0.0000E+00  0.0000E+00  0.0000E+00  0.0000E+00  0.0000E+00  0.0000E+00
      0.720  0.2394E-01  0.2394E-01  0.6475E-02  0.6474E-02  0.2323E-02  0.2323E-02  0.7587E-02  0.7587E-02  0.0000E+00  0.0000E+00  0.0000E+00  0.0000E+00  0.0000E+00  0.0000E+00  0.0000E+00  0.0000E+00  0.0000E+00  0.0000E+00
      0.918  0.2099E-01  0.2099E-01  0.5732E-02  0.5732E-02  0.2094E-02  0.2094E-02  0.7280E-02  0.7280E-02  0.0000E+00  0.0000E+00  0.0000E+00  0.0000E+00  0.0000E+00  0.0000E+00  0.0000E+00  0.0000E+00  0.0000E+00  0.0000E+00
      1.116  0.1757E-01  0.1757E-01  0.4843E-02  0.4842E-02  0.1872E-02  0.1872E-02  0.7057E-02  0.7056E-02  0.0000E+00  0.0000E+00  0.0000E+00  0.0000E+00  0.0000E+00  0.0000E+00  0.0000E+00  0.0000E+00  0.0000E+00  0.0000E+00
      1.314  0.1459E-01  0.1459E-01  0.3950E-02  0.3950E-02  0.1681E-02  0.1681E-02  0.6540E-02  0.6540E-02  0.0000E+00  0.0000E+00  0.0000E+00  0.0000E+00  0.0000E+00  0.0000E+00  0.0000E+00  0.0000E+00  0.0000E+00  0.0000E+00