    2    2    1    2
  0.1980791E+02  0.3826437E-09  0.3826437E-09  0.3826437E-09  0.5000000E-15
  1.000000000000000E-004
  CAR 
 unknown system                          
      8     10     36
 
  0.1250000E+00  0.1250000E+00  0.1250000E+00  0.3125000E-01
    1       -5.890435     -5.890523   1.000000   1.000000
    2        4.334784      4.334435   1.000000   1.000000
    3        5.643846      5.643328   1.000000   1.000000
    4        5.643846      5.643328   1.000000   1.000000
    5        8.469906      8.470099   0.000000   0.000000
    6        8.933340      8.933525   0.000000   0.000000
    7        8.933341      8.933526   0.000000   0.000000
    8       10.749988     10.749892   0.000000   0.000000
    9       13.174240     13.174478   0.000000   0.000000
   10       13.174240     13.174478   0.000000   0.000000
   11       14.729046     14.729961   0.000000   0.000000
   12       16.661868     16.662893   0.000000   0.000000
   13       18.396386     18.397160   0.000000   0.000000
   14       18.396386     18.397160   0.000000   0.000000
   15       22.650516     22.651934   0.000000   0.000000
   16       27.135730     27.135824   0.000000   0.000000
   17       27.135730     27.135824   0.000000   0.000000
   18       27.488020     27.488151   0.000000   0.000000
   19       29.933963     29.933970   0.000000   0.000000
   20       29.933963     29.933970   0.000000   0.000000
   21       32.485424     32.485264   0.000000   0.000000
   22       32.485424     32.485264   0.000000   0.000000
   23       33.366471     33.366390   0.000000   0.000000
   24       35.484179     35.484153   0.000000   0.000000
   25       37.515540     37.515545   0.000000   0.000000
   26       37.515540     37.515546   0.000000   0.000000
   27       38.683781     38.684187   0.000000   0.000000
   28       40.555350     40.555746   0.000000   0.000000
   29       40.555350     40.555746   0.000000   0.000000
   30       42.985656     42.986072   0.000000   0.000000
   31       42.985656     42.986072   0.000000   0.000000
   32       44.841975     44.842397   0.000000   0.000000
   33       44.841975     44.842397   0.000000   0.000000
   34       45.119539     45.120625   0.000000   0.000000
   35       48.111516     48.112493   0.000000   0.000000
   36       48.145932     48.141105   0.000000   0.000000
 
  0.3750000E+00  0.1250000E+00  0.1250000E+00  0.9375000E-01
    1       -4.834020     -4.834156   1.000000   1.000000
    2        1.291312      1.291109   1.000000   1.000000
    3        3.605611      3.605459   1.000000   1.000000
    4        5.157147      5.156671   1.000000   1.000000
    5        8.689960      8.690132   0.000000   0.000000
    6        9.622281      9.622561   0.000000   0.000000
    7        9.802533      9.802679   0.000000   0.000000
    8       12.281608     12.281901   0.000000   0.000000
    9       12.405788     12.406079   0.000000   0.000000
   10       15.830760     15.831602   0.000000   0.000000
   11       16.080862     16.080828   0.000000   0.000000
   12       18.441605     18.442185   0.000000   0.000000
   13       19.994399     19.994719   0.000000   0.000000
   14       21.451799     21.452456   0.000000   0.000000
   15       22.412093     22.412326   0.000000   0.000000
   16       24.124178     24.124340   0.000000   0.000000
   17       24.877005     24.877329   0.000000   0.000000
   18       27.828506     27.829573   0.000000   0.000000
   19       28.049298     28.049360   0.000000   0.000000
   20       29.004895     29.004960   0.000000   0.000000
   21       32.187952     32.187933   0.000000   0.000000
   22       32.692952     32.692880   0.000000   0.000000
   23       33.526617     33.526865   0.000000   0.000000
   24       35.615898     35.616214   0.000000   0.000000
   25       35.841781     35.842063   0.000000   0.000000
   26       37.138949     37.139369   0.000000   0.000000
   27       37.242284     37.242689   0.000000   0.000000
   28       38.352059     38.352463   0.000000   0.000000
   29       39.321334     39.321410   0.000000   0.000000
   30       40.430937     40.431400   0.000000   0.000000
   31       40.735895     40.736364   0.000000   0.000000
   32       43.278794     43.278880   0.000000   0.000000
   33       43.849078     43.850071   0.000000   0.000000
   34       44.705677     44.705989   0.000000   0.000000
   35       44.928934     44.929683   0.000000   0.000000
   36       46.063136     46.063426   0.000000   0.000000
 
 -0.3750000E+00  0.1250000E+00  0.1250000E+00  0.9375000E-01
    1       -3.651374     -3.651613   1.000000   1.000000
    2       -0.854472     -0.854504   1.000000   1.000000
    3        3.641852      3.641637   1.000000   1.000000
    4        4.360847      4.360505   1.000000   1.000000
    5        8.145799      8.146092   0.000000   0.000000
    6        9.465811      9.466030   0.000000   0.000000
    7       10.039227     10.039503   0.000000   0.000000
    8       13.339984     13.340335   0.000000   0.000000
    9       14.959106     14.959857   0.000000   0.000000
   10       16.450480     16.450531   0.000000   0.000000
   11       17.554302     17.554562   0.000000   0.000000
   12       17.649137     17.649256   0.000000   0.000000
   13       18.585377     18.585464   0.000000   0.000000
   14       21.104405     21.104481   0.000000   0.000000
   15       24.375057     24.375363   0.000000   0.000000
   16       25.692598     25.693148   0.000000   0.000000
   17       26.373013     26.373509   0.000000   0.000000
   18       27.149296     27.149605   0.000000   0.000000
   19       28.007253     28.007305   0.000000   0.000000
   20       28.382798     28.383118   0.000000   0.000000
   21       30.805626     30.805802   0.000000   0.000000
   22       32.110250     32.111210   0.000000   0.000000
   23       32.464140     32.464522   0.000000   0.000000
   24       33.710757     33.710697   0.000000   0.000000
   25       34.236620     34.236851   0.000000   0.000000
   26       35.785951     35.786940   0.000000   0.000000
   27       36.133237     36.133663   0.000000   0.000000
   28       36.539912     36.540383   0.000000   0.000000
   29       38.964335     38.964956   0.000000   0.000000
   30       39.272152     39.272021   0.000000   0.000000
   31       39.981020     39.981570   0.000000   0.000000
   32       41.195250     41.195553   0.000000   0.000000
   33       43.436753     43.437278   0.000000   0.000000
   34       43.751813     43.752445   0.000000   0.000000
   35       44.947241     44.947983   0.000000   0.000000
   36       46.787142     46.787480   0.000000   0.000000
 
 -0.1250000E+00  0.1250000E+00  0.1250000E+00  0.9375000E-01
    1       -5.347860     -5.347970   1.000000   1.000000
    2        2.705257      2.704958   1.000000   1.000000
    3        4.604130      4.603810   1.000000   1.000000
    4        4.686883      4.686549   1.000000   1.000000
    5        8.086371      8.086664   0.000000   0.000000
    6        9.690096      9.690178   0.000000   0.000000
    7       10.425231     10.425261   0.000000   0.000000
    8       10.690223     10.690615   0.000000   0.000000
    9       13.523465     13.523405   0.000000   0.000000
   10       14.134483     14.134642   0.000000   0.000000
   11       16.013471     16.014368   0.000000   0.000000
   12       17.579482     17.580326   0.000000   0.000000
   13       19.127989     19.128712   0.000000   0.000000
   14       20.404797     20.405474   0.000000   0.000000
   15       23.628384     23.628547   0.000000   0.000000
   16       24.150323     24.150508   0.000000   0.000000
   17       25.308438     25.309407   0.000000   0.000000
   18       27.621147     27.621147   0.000000   0.000000
   19       27.676754     27.676915   0.000000   0.000000
   20       29.132086     29.132230   0.000000   0.000000
   21       32.403429     32.403402   0.000000   0.000000
   22       33.429604     33.429410   0.000000   0.000000
   23       34.409817     34.409748   0.000000   0.000000
   24       36.015382     36.015766   0.000000   0.000000
   25       37.592780     37.593183   0.000000   0.000000
   26       37.886109     37.886205   0.000000   0.000000
   27       38.264310     38.264816   0.000000   0.000000
   28       39.098347     39.098550   0.000000   0.000000
   29       39.684071     39.684478   0.000000   0.000000
   30       40.363480     40.363728   0.000000   0.000000
   31       41.966390     41.966633   0.000000   0.000000
   32       41.994452     41.994811   0.000000   0.000000
   33       44.483731     44.484005   0.000000   0.000000
   34       44.987881     44.988443   0.000000   0.000000
   35       46.356454     46.357028   0.000000   0.000000
   36       46.499508     46.501219   0.000000   0.000000
 
  0.3750000E+00  0.3750000E+00  0.1250000E+00  0.9375000E-01
    1       -4.287362     -4.287517   1.000000   1.000000
    2        0.986070      0.985728   1.000000   1.000000
    3        3.239982      3.239879   1.000000   1.000000
    4        3.707270      3.707040   1.000000   1.000000
    5        7.276671      7.277132   0.000000   0.000000
    6        8.824784      8.825298   0.000000   0.000000
    7       11.981069     11.981038   0.000000   0.000000
    8       12.235817     12.235845   0.000000   0.000000
    9       15.942433     15.942469   0.000000   0.000000
   10       16.237419     16.237274   0.000000   0.000000
   11       17.662304     17.662971   0.000000   0.000000
   12       19.210709     19.210875   0.000000   0.000000
   13       19.776041     19.776785   0.000000   0.000000
   14       20.851743     20.851991   0.000000   0.000000
   15       21.899640     21.900290   0.000000   0.000000
   16       23.139272     23.140000   0.000000   0.000000
   17       24.436830     24.436901   0.000000   0.000000
   18       26.002230     26.002223   0.000000   0.000000
   19       27.957786     27.958061   0.000000   0.000000
   20       30.247821     30.248373   0.000000   0.000000
   21       31.306735     31.307131   0.000000   0.000000
   22       32.452140     32.452428   0.000000   0.000000
   23       32.546643     32.547080   0.000000   0.000000
   24       33.541929     33.542452   0.000000   0.000000
   25       35.069261     35.069364   0.000000   0.000000
   26       35.360417     35.360723   0.000000   0.000000
   27       36.630855     36.631093   0.000000   0.000000
   28       39.467008     39.467250   0.000000   0.000000
   29       39.499529     39.499911   0.000000   0.000000
   30       41.415808     41.416212   0.000000   0.000000
   31       42.746531     42.746882   0.000000   0.000000
   32       43.050429     43.050487   0.000000   0.000000
   33       43.246553     43.247042   0.000000   0.000000
   34       43.567638     43.568113   0.000000   0.000000
   35       45.616472     45.617100   0.000000   0.000000
   36       46.192310     46.192994   0.000000   0.000000
 
 -0.3750000E+00  0.3750000E+00  0.1250000E+00  0.1875000E+00
    1       -2.592332     -2.592604   1.000000   1.000000
    2       -1.020759     -1.021041   1.000000   1.000000
    3        1.832248      1.832362   1.000000   1.000000
    4        2.944696      2.944647   1.000000   1.000000
    5        8.320286      8.320683   0.000000   0.000000
    6       10.220769     10.221047   0.000000   0.000000
    7       11.247252     11.247449   0.000000   0.000000
    8       13.420147     13.420342   0.000000   0.000000
    9       14.389304     14.389272   0.000000   0.000000
   10       17.084086     17.084100   0.000000   0.000000
   11       18.245881     18.245906   0.000000   0.000000
   12       20.335801     20.336521   0.000000   0.000000
   13       21.402753     21.402839   0.000000   0.000000
   14       22.047208     22.047088   0.000000   0.000000
   15       23.555096     23.555664   0.000000   0.000000
   16       24.401153     24.401898   0.000000   0.000000
   17       24.796435     24.796419   0.000000   0.000000
   18       25.475200     25.475108   0.000000   0.000000
   19       27.146089     27.146752   0.000000   0.000000
   20       27.841488     27.841677   0.000000   0.000000
   21       28.832736     28.833088   0.000000   0.000000
   22       30.228172     30.228774   0.000000   0.000000
   23       31.129932     31.130495   0.000000   0.000000
   24       33.643701     33.644330   0.000000   0.000000
   25       34.266344     34.266892   0.000000   0.000000
   26       35.086917     35.087397   0.000000   0.000000
   27       36.838623     36.839137   0.000000   0.000000
   28       37.499162     37.499685   0.000000   0.000000
   29       38.149085     38.149584   0.000000   0.000000
   30       38.702201     38.702529   0.000000   0.000000
   31       40.699496     40.700132   0.000000   0.000000
   32       42.714528     42.714842   0.000000   0.000000
   33       44.516231     44.516352   0.000000   0.000000
   34       45.468870     45.469440   0.000000   0.000000
   35       46.010736     46.011393   0.000000   0.000000
   36       47.078645     47.079157   0.000000   0.000000
 
 -0.1250000E+00  0.3750000E+00  0.1250000E+00  0.1875000E+00
    1       -3.856271     -3.856462   1.000000   1.000000
    2        0.070921      0.070705   1.000000   1.000000
    3        2.585570      2.585534   1.000000   1.000000
    4        3.988167      3.987943   1.000000   1.000000
    5        8.819325      8.819633   0.000000   0.000000
    6        9.502726      9.502978   0.000000   0.000000
    7       10.976438     10.976749   0.000000   0.000000
    8       11.901697     11.901731   0.000000   0.000000
    9       15.003324     15.003450   0.000000   0.000000
   10       15.725186     15.725524   0.000000   0.000000
   11       17.986300     17.986932   0.000000   0.000000
   12       18.975200     18.975090   0.000000   0.000000
   13       20.266378     20.266645   0.000000   0.000000
   14       21.152183     21.152660   0.000000   0.000000
   15       23.293973     23.294567   0.000000   0.000000
   16       24.311886     24.311884   0.000000   0.000000
   17       25.060175     25.060267   0.000000   0.000000
   18       27.041268     27.041722   0.000000   0.000000
   19       27.913788     27.914026   0.000000   0.000000
   20       28.888703     28.888980   0.000000   0.000000
   21       30.365749     30.365778   0.000000   0.000000
   22       31.811100     31.811882   0.000000   0.000000
   23       32.134782     32.135596   0.000000   0.000000
   24       33.371654     33.371927   0.000000   0.000000
   25       34.915062     34.915567   0.000000   0.000000
   26       35.755897     35.756386   0.000000   0.000000
   27       37.359104     37.359399   0.000000   0.000000
   28       37.495725     37.496047   0.000000   0.000000
   29       38.596902     38.597316   0.000000   0.000000
   30       39.351944     39.352403   0.000000   0.000000
   31       41.139261     41.139711   0.000000   0.000000
   32       42.089815     42.089966   0.000000   0.000000
   33       42.643105     42.643603   0.000000   0.000000
   34       45.165470     45.165989   0.000000   0.000000
   35       45.528501     45.528727   0.000000   0.000000
   36       47.186819     47.187390   0.000000   0.000000
 
 -0.3750000E+00 -0.3750000E+00  0.1250000E+00  0.9375000E-01
    1       -2.772839     -2.773063   1.000000   1.000000
    2       -0.916417     -0.916722   1.000000   1.000000
    3        2.464374      2.464379   1.000000   1.000000
    4        3.228992      3.228797   1.000000   1.000000
    5        6.811415      6.812006   0.000000   0.000000
    6        7.893519      7.893975   0.000000   0.000000
    7       14.248319     14.248400   0.000000   0.000000
    8       14.355727     14.355727   0.000000   0.000000
    9       16.776128     16.776195   0.000000   0.000000
   10       16.787306     16.787314   0.000000   0.000000
   11       18.297557     18.297534   0.000000   0.000000
   12       18.951942     18.951861   0.000000   0.000000
   13       20.943689     20.943684   0.000000   0.000000
   14       21.004174     21.004350   0.000000   0.000000
   15       21.949541     21.950264   0.000000   0.000000
   16       24.736403     24.737186   0.000000   0.000000
   17       24.866036     24.866455   0.000000   0.000000
   18       25.464187     25.464996   0.000000   0.000000
   19       26.865611     26.866019   0.000000   0.000000
   20       28.366470     28.367102   0.000000   0.000000
   21       28.855917     28.856571   0.000000   0.000000
   22       29.567175     29.567309   0.000000   0.000000
   23       30.200621     30.201092   0.000000   0.000000
   24       31.937933     31.938061   0.000000   0.000000
   25       35.505177     35.504928   0.000000   0.000000
   26       36.218384     36.218781   0.000000   0.000000
   27       38.064011     38.064284   0.000000   0.000000
   28       39.061096     39.061714   0.000000   0.000000
   29       39.092520     39.092931   0.000000   0.000000
   30       40.730641     40.731201   0.000000   0.000000
   31       41.749310     41.749756   0.000000   0.000000
   32       43.022999     43.023571   0.000000   0.000000
   33       43.596487     43.597438   0.000000   0.000000
   34       44.956655     44.957346   0.000000   0.000000
   35       46.048256     46.048836   0.000000   0.000000
   36       46.435872     46.435907   0.000000   0.000000
 
  0.3750000E+00  0.3750000E+00  0.3750000E+00  0.3125000E-01
    1       -4.385394     -4.385565   1.000000   1.000000
    2       -0.046520     -0.046590   1.000000   1.000000
    3        4.841459      4.841032   1.000000   1.000000
    4        4.841460      4.841033   1.000000   1.000000
    5        7.640928      7.641125   0.000000   0.000000
    6        9.385534      9.385857   0.000000   0.000000
    7        9.385534      9.385857   0.000000   0.000000
    8       13.841664     13.842709   0.000000   0.000000
    9       14.538862     14.539018   0.000000   0.000000
   10       14.538862     14.539018   0.000000   0.000000
   11       15.722732     15.722933   0.000000   0.000000
   12       19.763836     19.763919   0.000000   0.000000
   13       19.763836     19.763920   0.000000   0.000000
   14       20.160021     20.160392   0.000000   0.000000
   15       22.722188     22.722374   0.000000   0.000000
   16       24.570360     24.570938   0.000000   0.000000
   17       24.570360     24.570938   0.000000   0.000000
   18       29.060760     29.062069   0.000000   0.000000
   19       29.951149     29.951261   0.000000   0.000000
   20       29.951149     29.951261   0.000000   0.000000
   21       29.973292     29.973454   0.000000   0.000000
   22       32.955911     32.955758   0.000000   0.000000
   23       32.955911     32.955759   0.000000   0.000000
   24       34.480756     34.480990   0.000000   0.000000
   25       34.480757     34.480990   0.000000   0.000000
   26       36.019249     36.019881   0.000000   0.000000
   27       36.698731     36.698559   0.000000   0.000000
   28       38.773903     38.774485   0.000000   0.000000
   29       38.773903     38.774485   0.000000   0.000000
   30       39.725366     39.725905   0.000000   0.000000
   31       39.725366     39.725905   0.000000   0.000000
   32       40.915638     40.916487   0.000000   0.000000
   33       43.443632     43.444228   0.000000   0.000000
   34       43.777380     43.778155   0.000000   0.000000
   35       47.022345     47.022780   0.000000   0.000000
   36       47.022481     47.022798   0.000000   0.000000
 
 -0.3750000E+00  0.3750000E+00  0.3750000E+00  0.9375000E-01
    1       -3.142485     -3.142742   1.000000   1.000000
    2       -0.735860     -0.736038   1.000000   1.000000
    3        1.904856      1.904918   1.000000   1.000000
    4        4.033059      4.032769   1.000000   1.000000
    5        7.774234      7.774737   0.000000   0.000000
    6       11.431293     11.431324   0.000000   0.000000
    7       11.434968     11.435194   0.000000   0.000000
    8       12.937211     12.937437   0.000000   0.000000
    9       13.933566     13.933706   0.000000   0.000000
   10       14.022597     14.022815   0.000000   0.000000
   11       18.564932     18.565709   0.000000   0.000000
   12       20.836454     20.836426   0.000000   0.000000
   13       21.212604     21.212810   0.000000   0.000000
   14       22.062701     22.062778   0.000000   0.000000
   15       22.496707     22.496996   0.000000   0.000000
   16       24.438498     24.438440   0.000000   0.000000
   17       25.514118     25.514142   0.000000   0.000000
   18       26.040372     26.040799   0.000000   0.000000
   19       27.892484     27.892803   0.000000   0.000000
   20       28.152839     28.153447   0.000000   0.000000
   21       30.792621     30.793210   0.000000   0.000000
   22       31.488339     31.488914   0.000000   0.000000
   23       31.896840     31.897272   0.000000   0.000000
   24       32.437116     32.437659   0.000000   0.000000
   25       34.037855     34.038667   0.000000   0.000000
   26       34.818397     34.818918   0.000000   0.000000
   27       35.488914     35.488751   0.000000   0.000000
   28       36.224390     36.225037   0.000000   0.000000
   29       39.606938     39.607629   0.000000   0.000000
   30       40.293366     40.293957   0.000000   0.000000
   31       41.990802     41.991341   0.000000   0.000000
   32       42.248148     42.248512   0.000000   0.000000
   33       43.154917     43.155400   0.000000   0.000000
   34       43.632469     43.632295   0.000000   0.000000
   35       44.318032     44.318570   0.000000   0.000000
   36       46.284952     46.285750   0.000000   0.000000
