<?xml version="1.0" encoding="ISO-8859-1"?>
<modeling>
 <generator>
  <i name="program" type="string">vasp </i>
  <i name="version" type="string">5.4.1  </i>
  <i name="subversion" type="string">05Feb16 (build Apr 16 2019 13:49:49) complex                          parallel </i>
  <i name="platform" type="string">IFC91_ompi </i>
  <i name="date" type="string">2019 07 24 </i>
  <i name="time" type="string">08:41:57 </i>
 </generator>
 <incar>
  <i type="int" name="ISTART">     0</i>
  <i type="string" name="PREC">accurate</i>
  <i type="string" name="ALGO"> Fast</i>
  <i type="int" name="ISPIN">     2</i>
  <i type="int" name="ICHARG">     2</i>
  <i type="int" name="IBRION">    -1</i>
  <i name="EDIFF">      0.00001000</i>
  <i name="EDIFFG">     -0.01000000</i>
  <i type="int" name="NSW">     0</i>
  <i type="int" name="ISIF">     3</i>
  <i name="ENCUT">    520.00000000</i>
  <v name="MAGMOM">      0.60000000      0.60000000</v>
  <i type="string" name="LREAL"> Auto</i>
  <i type="int" name="ISMEAR">    -5</i>
  <i name="SIGMA">      0.05000000</i>
  <i type="logical" name="LWAVE"> F  </i>
  <i type="logical" name="LORBIT"> F  </i>
  <v type="int" name="KPOINT_BSE">    -1     0     0     0</v>
 </incar>
 <kpoints>
  <generation param="Monkhorst-Pack">
   <v type="int" name="divisions">       4        4        4 </v>
   <v name="usershift">      0.00000000       0.00000000       0.00000000 </v>
   <v name="genvec1">      0.25000000       0.00000000      -0.00000000 </v>
   <v name="genvec2">      0.00000000       0.25000000       0.00000000 </v>
   <v name="genvec3">      0.00000000       0.00000000       0.25000000 </v>
   <v name="shift">      0.50000000       0.50000000       0.50000000 </v>
  </generation>
  <varray name="kpointlist" >
   <v>       0.12500000       0.12500000       0.12500000 </v>
   <v>       0.37500000       0.12500000       0.12500000 </v>
   <v>      -0.37500000       0.12500000       0.12500000 </v>
   <v>      -0.12500000       0.12500000       0.12500000 </v>
   <v>       0.37500000       0.37500000       0.12500000 </v>
   <v>      -0.37500000       0.37500000       0.12500000 </v>
   <v>      -0.12500000       0.37500000       0.12500000 </v>
   <v>      -0.37500000      -0.37500000       0.12500000 </v>
   <v>       0.37500000       0.37500000       0.37500000 </v>
   <v>      -0.37500000       0.37500000       0.37500000 </v>
  </varray>
  <varray name="weights" >
   <v>       0.03125000 </v>
   <v>       0.09375000 </v>
   <v>       0.09375000 </v>
   <v>       0.09375000 </v>
   <v>       0.09375000 </v>
   <v>       0.18750000 </v>
   <v>       0.18750000 </v>
   <v>       0.09375000 </v>
   <v>       0.03125000 </v>
   <v>       0.09375000 </v>
  </varray>
  <varray name="tetrahedronlist"  type="int" >
   <v type="int" >       24        1        2        4        9 </v>
   <v type="int" >       24        2        3        4        7 </v>
   <v type="int" >       24        3        4        5        7 </v>
   <v type="int" >       24        2        3        4        9 </v>
   <v type="int" >       24        5        6        7       10 </v>
   <v type="int" >       24        5        6        8       10 </v>
   <v type="int" >       24        3        5        7       10 </v>
   <v type="int" >       24        6        6        8       10 </v>
   <v type="int" >       24        6        8        8       10 </v>
   <v type="int" >       24        6        8       10       10 </v>
   <v type="int" >       24        3        6        7        8 </v>
   <v type="int" >       24        3        5        7        8 </v>
   <v type="int" >       24        3        6        8       10 </v>
   <v type="int" >       24        2        5        7        9 </v>
   <v type="int" >       24        2        4        5        9 </v>
   <v type="int" >       24        3        5        7        9 </v>
   <v type="int" >       36        2        2        4        4 </v>
   <v type="int" >       48        1        2        4        4 </v>
   <v type="int" >       24        2        2        4        9 </v>
   <v type="int" >       24        1        1        2        4 </v>
   <v type="int" >       24        1        2        2        4 </v>
   <v type="int" >       24        2        3        7       10 </v>
   <v type="int" >       24        2        3        3        7 </v>
   <v type="int" >       24        2        3        3        9 </v>
   <v type="int" >       72        6        7        7       10 </v>
   <v type="int" >       36        6        6        7        7 </v>
   <v type="int" >       48        3        7        7       10 </v>
   <v type="int" >       12        3        3        7        7 </v>
   <v type="int" >       48        6        6        6        7 </v>
   <v type="int" >       72        6        6        7       10 </v>
   <v type="int" >       72        6        7       10       10 </v>
   <v type="int" >       24        3        6        6       10 </v>
   <v type="int" >       72        3        6        7       10 </v>
   <v type="int" >       24        3        3        6        7 </v>
   <v type="int" >       24        3        6        6        7 </v>
   <v type="int" >       24        3        3        6       10 </v>
   <v type="int" >       48        2        3        7        7 </v>
   <v type="int" >       48        2        3        7        9 </v>
   <v type="int" >       24        3        3        7       10 </v>
   <v type="int" >       24        3        3        3        7 </v>
   <v type="int" >       24        3        3        7        9 </v>
   <v type="int" >       48        2        5        7        7 </v>
   <v type="int" >       24        2        4        5        7 </v>
   <v type="int" >       48        2        2        4        7 </v>
   <v type="int" >       24        2        2        7        9 </v>
   <v type="int" >       24        4        5        5        7 </v>
   <v type="int" >       24        4        4        5        7 </v>
   <v type="int" >       24        2        4        4        7 </v>
   <v type="int" >       24        4        5        7        7 </v>
   <v type="int" >       24        2        4        7        7 </v>
   <v type="int" >       24        5        6        8        8 </v>
   <v type="int" >       24        5        6        6        8 </v>
   <v type="int" >       24        5        6        6        7 </v>
   <v type="int" >       24        5        5        6        8 </v>
   <v type="int" >       24        5        5        6        7 </v>
   <v type="int" >       48        5        6        7        7 </v>
   <v type="int" >       48        6        6        7        8 </v>
   <v type="int" >       24        5        6        7        8 </v>
   <v type="int" >       24        3        6        7        7 </v>
   <v type="int" >       48        6        6       10       10 </v>
   <v type="int" >       24        3        7       10       10 </v>
   <v type="int" >       12        3        3       10       10 </v>
   <v type="int" >       24        5        8        8        8 </v>
   <v type="int" >       24        5        5        8        8 </v>
   <v type="int" >       24        5        5        5        8 </v>
   <v type="int" >       24        6        7        8        8 </v>
   <v type="int" >       24        6        7        7        8 </v>
   <v type="int" >       24        5        7        8        8 </v>
   <v type="int" >       24        5        5        7        8 </v>
   <v type="int" >       24        5        7        7        8 </v>
   <v type="int" >       72        6        6        6       10 </v>
   <v type="int" >       72        6        6        6        8 </v>
   <v type="int" >       60        6        6        8        8 </v>
   <v type="int" >       48        6        8        8        8 </v>
   <v type="int" >       24        2        7        9       10 </v>
   <v type="int" >       24        3        7        9       10 </v>
   <v type="int" >       24        3        3        9       10 </v>
   <v type="int" >       24        2        4        4        5 </v>
   <v type="int" >       24        2        4        5        5 </v>
   <v type="int" >       24        2        5        5        7 </v>
   <v type="int" >       24        2        2        4        5 </v>
   <v type="int" >       24        2        2        5        7 </v>
   <v type="int" >       36        1        1        4        4 </v>
   <v type="int" >       48        1        4        4        4 </v>
   <v type="int" >       24        2        4        4        4 </v>
   <v type="int" >       24        1        1        1        4 </v>
   <v type="int" >       12        3        3        9        9 </v>
   <v type="int" >       24        2        7        7       10 </v>
   <v type="int" >       24        2        7       10       10 </v>
   <v type="int" >       24        2        2        7       10 </v>
   <v type="int" >       12        3        3        3        3 </v>
   <v type="int" >       24        3        3        3        9 </v>
   <v type="int" >       24        4        5        5        5 </v>
   <v type="int" >       24        4        4        5        5 </v>
   <v type="int" >       24        4        4        4        5 </v>
   <v type="int" >       24        7        7        7       10 </v>
   <v type="int" >       12        7        7       10       10 </v>
   <v type="int" >       24        2        7        7        7 </v>
   <v type="int" >       12        2        2        7        7 </v>
   <v type="int" >       72        6        6        6        6 </v>
   <v type="int" >       12        1        1        1        1 </v>
   <v type="int" >       36        8        8        8        8 </v>
  </varray>
  <i name="volumeweight">      0.00032552 </i>
 </kpoints>
 <parameters>
  <separator name="general" >
   <i type="string" name="SYSTEM">unknown system</i>
   <i type="logical" name="LCOMPAT"> F  </i>
  </separator>
  <separator name="electronic" >
   <i type="string" name="PREC">accura</i>
   <i name="ENMAX">    520.00000000</i>
   <i name="ENAUG">    322.06900000</i>
   <i name="EDIFF">      0.00001000</i>
   <i type="int" name="IALGO">    68</i>
   <i type="int" name="IWAVPR">    10</i>
   <i type="int" name="NBANDS">    36</i>
   <i name="NELECT">      8.00000000</i>
   <i type="int" name="TURBO">     0</i>
   <i type="int" name="IRESTART">     0</i>
   <i type="int" name="NREBOOT">     0</i>
   <i type="int" name="NMIN">     0</i>
   <i name="EREF">      0.00000000</i>
   <separator name="electronic smearing" >
    <i type="int" name="ISMEAR">    -5</i>
    <i name="SIGMA">      0.05000000</i>
    <i name="KSPACING">      0.50000000</i>
    <i type="logical" name="KGAMMA"> T  </i>
   </separator>
   <separator name="electronic projectors" >
    <i type="logical" name="LREAL"> T  </i>
    <v name="ROPT">     -0.00025000</v>
    <i type="int" name="LMAXPAW">  -100</i>
    <i type="int" name="LMAXMIX">     2</i>
    <i type="logical" name="NLSPLINE"> F  </i>
   </separator>
   <separator name="electronic startup" >
    <i type="int" name="ISTART">     0</i>
    <i type="int" name="ICHARG">     2</i>
    <i type="int" name="INIWAV">     1</i>
   </separator>
   <separator name="electronic spin" >
    <i type="int" name="ISPIN">     2</i>
    <i type="logical" name="LNONCOLLINEAR"> F  </i>
    <v name="MAGMOM">      0.60000000      0.60000000</v>
    <i name="NUPDOWN">     -1.00000000</i>
    <i type="logical" name="LSORBIT"> F  </i>
    <v name="SAXIS">      0.00000000      0.00000000      1.00000000</v>
    <i type="logical" name="LSPIRAL"> F  </i>
    <v name="QSPIRAL">      0.00000000      0.00000000      0.00000000</v>
    <i type="logical" name="LZEROZ"> F  </i>
   </separator>
   <separator name="electronic exchange-correlation" >
    <i type="logical" name="LASPH"> F  </i>
    <i type="logical" name="LMETAGGA"> F  </i>
   </separator>
   <separator name="electronic convergence" >
    <i type="int" name="NELM">    60</i>
    <i type="int" name="NELMDL">    -5</i>
    <i type="int" name="NELMIN">     2</i>
    <i name="ENINI">    520.00000000</i>
    <separator name="electronic convergence detail" >
     <i type="logical" name="LDIAG"> T  </i>
     <i type="logical" name="LSUBROT"> F  </i>
     <i name="WEIMIN">      0.00000000</i>
     <i name="EBREAK">      0.00000007</i>
     <i name="DEPER">      0.30000000</i>
     <i type="int" name="NRMM">     4</i>
     <i name="TIME">      0.40000000</i>
    </separator>
   </separator>
   <separator name="electronic mixer" >
    <i name="AMIX">      0.40000000</i>
    <i name="BMIX">      1.00000000</i>
    <i name="AMIN">      0.10000000</i>
    <i name="AMIX_MAG">      1.60000000</i>
    <i name="BMIX_MAG">      1.00000000</i>
    <separator name="electronic mixer details" >
     <i type="int" name="IMIX">     4</i>
     <i type="logical" name="MIXFIRST"> F  </i>
     <i type="int" name="MAXMIX">   -45</i>
     <i name="WC">    100.00000000</i>
     <i type="int" name="INIMIX">     1</i>
     <i type="int" name="MIXPRE">     1</i>
     <i type="int" name="MREMOVE">     5</i>
    </separator>
   </separator>
   <separator name="electronic dipolcorrection" >
    <i type="logical" name="LDIPOL"> F  </i>
    <i type="logical" name="LMONO"> F  </i>
    <i type="int" name="IDIPOL">     0</i>
    <i name="EPSILON">      1.00000000</i>
    <v name="DIPOL">   -100.00000000   -100.00000000   -100.00000000</v>
    <i name="EFIELD">      0.00000000</i>
   </separator>
  </separator>
  <separator name="grids" >
   <i type="int" name="NGX">    28</i>
   <i type="int" name="NGY">    28</i>
   <i type="int" name="NGZ">    28</i>
   <i type="int" name="NGXF">    56</i>
   <i type="int" name="NGYF">    56</i>
   <i type="int" name="NGZF">    56</i>
   <i type="logical" name="ADDGRID"> F  </i>
  </separator>
  <separator name="ionic" >
   <i type="int" name="NSW">     0</i>
   <i type="int" name="IBRION">    -1</i>
   <i type="int" name="ISIF">     3</i>
   <i name="PSTRESS">      0.00000000</i>
   <i name="EDIFFG">     -0.01000000</i>
   <i type="int" name="NFREE">     0</i>
   <i name="POTIM">      0.50000000</i>
   <i name="SMASS">     -3.00000000</i>
   <i name="SCALEE">      1.00000000</i>
  </separator>
  <separator name="ionic md" >
   <i name="TEBEG">      0.00010000</i>
   <i name="TEEND">      0.00010000</i>
   <i type="int" name="NBLOCK">     1</i>
   <i type="int" name="KBLOCK">     1</i>
   <i type="int" name="NPACO">   256</i>
   <i name="APACO">     16.00000000</i>
  </separator>
  <separator name="symmetry" >
   <i type="int" name="ISYM">     2</i>
   <i name="SYMPREC">      0.00001000</i>
  </separator>
  <separator name="dos" >
   <i type="logical" name="LORBIT"> F  </i>
   <v name="RWIGS">     -1.00000000</v>
   <i type="int" name="NEDOS">   301</i>
   <i name="EMIN">     10.00000000</i>
   <i name="EMAX">    -10.00000000</i>
   <i name="EFERMI">      0.00000000</i>
  </separator>
  <separator name="writing" >
   <i type="int" name="NWRITE">     2</i>
   <i type="logical" name="LWAVE"> F  </i>
   <i type="logical" name="LCHARG"> T  </i>
   <i type="logical" name="LPARD"> F  </i>
   <i type="logical" name="LVTOT"> F  </i>
   <i type="logical" name="LVHAR"> F  </i>
   <i type="logical" name="LELF"> F  </i>
   <i type="logical" name="LOPTICS"> F  </i>
   <v name="STM">      0.00000000      0.00000000      0.00000000      0.00000000      0.00000000      0.00000000      0.00000000</v>
  </separator>
  <separator name="performance" >
   <i type="int" name="NPAR">    36</i>
   <i type="int" name="NSIM">     4</i>
   <i type="int" name="NBLK">    -1</i>
   <i type="logical" name="LPLANE"> T  </i>
   <i type="logical" name="LSCALAPACK"> T  </i>
   <i type="logical" name="LSCAAWARE"> T  </i>
   <i type="logical" name="LSCALU"> F  </i>
   <i type="logical" name="LASYNC"> F  </i>
   <i type="logical" name="LORBITALREAL"> F  </i>
  </separator>
  <separator name="miscellaneous" >
   <i type="int" name="IDIOT">     3</i>
   <i type="logical" name="LMUSIC"> F  </i>
   <v name="POMASS">     28.08500000</v>
   <v name="DARWINR">      0.00000000</v>
   <v name="DARWINV">      1.00000000</v>
   <i type="logical" name="LCORR"> T  </i>
  </separator>
  <i type="logical" name="GGA_COMPAT"> T  </i>
  <i type="logical" name="LBERRY"> F  </i>
  <i type="int" name="ICORELEVEL">     0</i>
  <i type="logical" name="LDAU"> F  </i>
  <i type="int" name="I_CONSTRAINED_M">     0</i>
  <separator name="electronic exchange-correlation" >
   <i type="string" name="GGA">--</i>
   <i type="int" name="VOSKOWN">     0</i>
   <i type="logical" name="LHFCALC"> F  </i>
   <i type="string" name="PRECFOCK"></i>
   <i type="logical" name="LSYMGRAD"> F  </i>
   <i type="logical" name="LHFONE"> F  </i>
   <i type="logical" name="LRHFCALC"> F  </i>
   <i type="logical" name="LTHOMAS"> F  </i>
   <i type="logical" name="LMODELHF"> F  </i>
   <i name="ENCUT4O">     -1.00000000</i>
   <i type="int" name="EXXOEP">     0</i>
   <i type="int" name="FOURORBIT">     0</i>
   <i name="AEXX">      0.00000000</i>
   <i name="HFALPHA">      0.00000000</i>
   <i name="MCALPHA">      0.00000000</i>
   <i name="ALDAX">      1.00000000</i>
   <i name="AGGAX">      1.00000000</i>
   <i name="ALDAC">      1.00000000</i>
   <i name="AGGAC">      1.00000000</i>
   <i type="int" name="NKREDX">     1</i>
   <i type="int" name="NKREDY">     1</i>
   <i type="int" name="NKREDZ">     1</i>
   <i type="logical" name="SHIFTRED"> F  </i>
   <i type="logical" name="ODDONLY"> F  </i>
   <i type="logical" name="EVENONLY"> F  </i>
   <i type="int" name="LMAXFOCK">     0</i>
   <i type="int" name="NMAXFOCKAE">     0</i>
   <i type="logical" name="LFOCKAEDFT"> F  </i>
   <i name="HFSCREEN">      0.00000000</i>
   <i name="HFSCREENC">      0.00000000</i>
   <i type="int" name="NBANDSGWLOW">     0</i>
  </separator>
  <separator name="vdW DFT" >
   <i type="logical" name="LUSE_VDW"> F  </i>
   <i name="Zab_VDW">     -0.84910000</i>
   <i name="PARAM1">      0.12340000</i>
   <i name="PARAM2">      1.00000000</i>
   <i name="PARAM3">      0.00000000</i>
  </separator>
  <separator name="model GW" >
   <i type="int" name="MODEL_GW">     0</i>
   <i name="MODEL_EPS0">     11.88474730</i>
   <i name="MODEL_ALPHA">      1.00000000</i>
  </separator>
  <separator name="linear response parameters" >
   <i type="logical" name="LEPSILON"> F  </i>
   <i type="logical" name="LRPA"> F  </i>
   <i type="logical" name="LNABLA"> F  </i>
   <i type="logical" name="LVEL"> F  </i>
   <i type="int" name="KINTER">     0</i>
   <i name="CSHIFT">      0.10000000</i>
   <i name="OMEGAMAX">     -1.00000000</i>
   <i name="DEG_THRESHOLD">      0.00200000</i>
  </separator>
  <separator name="orbital magnetization" >
   <i type="logical" name="NUCIND"> F  </i>
   <v name="MAGPOS">      0.00000000      0.00000000      0.00000000</v>
   <i type="logical" name="LNICSALL"> T  </i>
   <i type="logical" name="ORBITALMAG"> F  </i>
   <i type="logical" name="LMAGBLOCH"> F  </i>
   <i type="logical" name="LCHIMAG"> F  </i>
   <i type="logical" name="LGAUGE"> T  </i>
   <i type="int" name="MAGATOM">     0</i>
   <v name="MAGDIPOL">      0.00000000      0.00000000      0.00000000</v>
   <v name="AVECCONST">      0.00000000      0.00000000      0.00000000</v>
  </separator>
  <separator name="response functions" >
   <i type="logical" name="LADDER"> F  </i>
   <i type="logical" name="LFXC"> F  </i>
   <i type="logical" name="LHARTREE"> T  </i>
   <i type="int" name="IBSE">     0</i>
   <v type="int" name="KPOINT">    -1     0     0     0</v>
   <i type="logical" name="LTCTE"> F  </i>
   <i type="logical" name="LTETE"> F  </i>
   <i type="logical" name="LTRIPLET"> F  </i>
   <i type="logical" name="LFXCEPS"> F  </i>
   <i type="logical" name="LFXHEG"> F  </i>
   <i type="int" name="NATURALO">     0</i>
   <i type="logical" name="L2ORDER"> F  </i>
   <i type="logical" name="LUSEW"> F  </i>
   <i name="ENCUTGW">     -2.00000000</i>
   <i name="ENCUTGWSOFT">     -2.00000000</i>
   <i name="ENCUTLF">     -1.00000000</i>
   <i type="int" name="LMAXMP2">    -1</i>
   <i name="SCISSOR">      0.00000000</i>
   <i type="int" name="NOMEGA">     0</i>
   <i type="int" name="NOMEGAR">     0</i>
   <i type="int" name="NBANDSGW">    -1</i>
   <i type="int" name="NBANDSO">    -1</i>
   <i type="int" name="NBANDSV">    -1</i>
   <i type="int" name="NELM">     1</i>
   <i type="int" name="NELMHF">     1</i>
   <i type="int" name="DIM">     3</i>
   <i type="int" name="ANTIRES">     0</i>
   <i name="OMEGAMAX">    -30.00000000</i>
   <i name="OMEGAMIN">    -30.00000000</i>
   <i name="OMEGATL">   -200.00000000</i>
   <i type="int" name="OMEGAGRID">     0</i>
   <i name="CSHIFT">     -0.10000000</i>
   <i type="logical" name="SELFENERGY"> F  </i>
   <i type="logical" name="LSPECTRAL"> F  </i>
   <i type="logical" name="LSPECTRALGW"> F  </i>
   <i type="logical" name="LSINGLES"> F  </i>
   <i type="logical" name="LFERMIGW"> F  </i>
   <i type="logical" name="ODDONLYGW"> F  </i>
   <i type="logical" name="EVENONLYGW"> F  </i>
   <i type="int" name="NKREDLFX">     1</i>
   <i type="int" name="NKREDLFY">     1</i>
   <i type="int" name="NKREDLFZ">     1</i>
   <i type="int" name="MAXMEM">  1800</i>
   <i type="int" name="TELESCOPE">     0</i>
   <i type="int" name="TAUPAR">     1</i>
   <i type="int" name="OMEGAPAR">    -1</i>
   <i name="LAMBDA">      1.00000000</i>
  </separator>
  <separator name="External order field" >
   <i name="OFIELD_KAPPA">      0.00000000</i>
   <v name="OFIELD_K">      0.00000000      0.00000000      0.00000000</v>
   <i name="OFIELD_Q6_NEAR">      0.00000000</i>
   <i name="OFIELD_Q6_FAR">      0.00000000</i>
   <i name="OFIELD_A">      0.00000000</i>
  </separator>
 </parameters>
 <atominfo>
  <atoms>       2 </atoms>
  <types>       1 </types>
  <array name="atoms" >
   <dimension dim="1">ion</dimension>
   <field type="string">element</field>
   <field type="int">atomtype</field>
   <set>
    <rc><c>Si</c><c>   1</c></rc>
    <rc><c>Si</c><c>   1</c></rc>
   </set>
  </array>
  <array name="atomtypes" >
   <dimension dim="1">type</dimension>
   <field type="int">atomspertype</field>
   <field type="string">element</field>
   <field>mass</field>
   <field>valence</field>
   <field type="string">pseudopotential</field>
   <set>
    <rc><c>   2</c><c>Si</c><c>     28.08500000</c><c>      4.00000000</c><c>  PAW_PBE Si 05Jan2001                  </c></rc>
   </set>
  </array>
 </atominfo>
 <structure name="initialpos" >
  <crystal>
   <varray name="basis" >
    <v>       3.82643698       0.00000000       0.00000000 </v>
    <v>       1.91321849       3.31379163      -0.00000000 </v>
    <v>       1.91321849       1.10459721       3.12427271 </v>
   </varray>
   <i name="volume">     39.61582434 </i>
   <varray name="rec_basis" >
    <v>       0.26133973      -0.15088456      -0.10669150 </v>
    <v>       0.00000000       0.30176912      -0.10669150 </v>
    <v>       0.00000000       0.00000000       0.32007449 </v>
   </varray>
  </crystal>
  <varray name="positions" >
   <v>       0.74999998       0.74999998       0.75000000 </v>
   <v>       0.50000001       0.49999999       0.50000000 </v>
  </varray>
 </structure>
 <calculation>
  <scstep>
   <time name="dav">    0.27    0.27</time>
   <time name="total">    0.28    0.31</time>
   <energy>
    <i name="alphaZ">      3.39895800 </i>
    <i name="ewald">   -229.34918007 </i>
    <i name="hartreedc">    -10.84713629 </i>
    <i name="XCdc">    -18.48132782 </i>
    <i name="pawpsdc">    176.18363791 </i>
    <i name="pawaedc">   -140.99252705 </i>
    <i name="eentropy">      0.00000000 </i>
    <i name="bandstr">      8.68735146 </i>
    <i name="atom">    206.13270273 </i>
    <i name="e_fr_energy">     -5.26752112 </i>
    <i name="e_wo_entrp">     -5.26752112 </i>
    <i name="e_0_energy">     -5.26752112 </i>
   </energy>
  </scstep>
  <scstep>
   <time name="dav">    0.44    0.44</time>
   <time name="total">    0.44    0.45</time>
   <energy>
    <i name="e_fr_energy">    -10.83018541 </i>
    <i name="e_wo_entrp">    -10.83018541 </i>
    <i name="e_0_energy">    -10.83018541 </i>
   </energy>
  </scstep>
  <scstep>
   <time name="dav">    0.25    0.25</time>
   <time name="total">    0.26    0.26</time>
   <energy>
    <i name="e_fr_energy">    -10.83589215 </i>
    <i name="e_wo_entrp">    -10.83589215 </i>
    <i name="e_0_energy">    -10.83589215 </i>
   </energy>
  </scstep>
  <scstep>
   <time name="dav">    0.71    0.71</time>
   <time name="total">    0.71    0.71</time>
   <energy>
    <i name="e_fr_energy">    -10.83589538 </i>
    <i name="e_wo_entrp">    -10.83589538 </i>
    <i name="e_0_energy">    -10.83589538 </i>
   </energy>
  </scstep>
  <scstep>
   <time name="dav">    0.26    0.26</time>
   <time name="total">    0.28    0.29</time>
   <energy>
    <i name="e_fr_energy">    -10.83589538 </i>
    <i name="e_wo_entrp">    -10.83589538 </i>
    <i name="e_0_energy">    -10.83589538 </i>
   </energy>
  </scstep>
  <scstep>
   <time name="diag">    0.09    0.10</time>
   <time name="diis">    0.06    0.06</time>
   <time name="orth">    0.01    0.01</time>
   <time name="total">    0.19    0.22</time>
   <energy>
    <i name="e_fr_energy">    -10.88145280 </i>
    <i name="e_wo_entrp">    -10.88145280 </i>
    <i name="e_0_energy">    -10.88145280 </i>
   </energy>
  </scstep>
  <scstep>
   <time name="diag">    0.08    0.08</time>
   <time name="diis">    0.06    0.06</time>
   <time name="orth">    0.01    0.01</time>
   <time name="total">    0.18    0.18</time>
   <energy>
    <i name="e_fr_energy">    -10.81838504 </i>
    <i name="e_wo_entrp">    -10.81838504 </i>
    <i name="e_0_energy">    -10.81838504 </i>
   </energy>
  </scstep>
  <scstep>
   <time name="diag">    0.07    0.07</time>
   <time name="diis">    0.07    0.07</time>
   <time name="orth">    0.01    0.01</time>
   <time name="total">    0.17    0.18</time>
   <energy>
    <i name="e_fr_energy">    -10.83401046 </i>
    <i name="e_wo_entrp">    -10.83401046 </i>
    <i name="e_0_energy">    -10.83401046 </i>
   </energy>
  </scstep>
  <scstep>
   <time name="diag">    0.07    0.07</time>
   <time name="diis">    0.08    0.08</time>
   <time name="orth">    0.01    0.01</time>
   <time name="total">    0.18    0.19</time>
   <energy>
    <i name="e_fr_energy">    -10.83608826 </i>
    <i name="e_wo_entrp">    -10.83608826 </i>
    <i name="e_0_energy">    -10.83608826 </i>
   </energy>
  </scstep>
  <scstep>
   <time name="diag">    0.07    0.07</time>
   <time name="diis">    0.08    0.08</time>
   <time name="orth">    0.01    0.01</time>
   <time name="total">    0.18    0.18</time>
   <energy>
    <i name="e_fr_energy">    -10.83648992 </i>
    <i name="e_wo_entrp">    -10.83648992 </i>
    <i name="e_0_energy">    -10.83648992 </i>
   </energy>
  </scstep>
  <scstep>
   <time name="diag">    0.07    0.07</time>
   <time name="diis">    0.08    0.08</time>
   <time name="orth">    0.01    0.01</time>
   <time name="total">    0.18    0.19</time>
   <energy>
    <i name="e_fr_energy">    -10.83655809 </i>
    <i name="e_wo_entrp">    -10.83655809 </i>
    <i name="e_0_energy">    -10.83655809 </i>
   </energy>
  </scstep>
  <scstep>
   <time name="diag">    0.07    0.07</time>
   <time name="diis">    0.08    0.08</time>
   <time name="orth">    0.02    0.02</time>
   <time name="total">    0.21    0.21</time>
   <energy>
    <i name="e_fr_energy">    -10.83657374 </i>
    <i name="e_wo_entrp">    -10.83657374 </i>
    <i name="e_0_energy">    -10.83657374 </i>
   </energy>
  </scstep>
  <scstep>
   <time name="diag">    0.13    0.15</time>
   <time name="diis">    0.09    0.10</time>
   <time name="orth">    0.02    0.02</time>
   <time name="total">    0.25    0.28</time>
   <energy>
    <i name="alphaZ">      3.39895800 </i>
    <i name="ewald">   -229.34918007 </i>
    <i name="hartreedc">    -14.80170038 </i>
    <i name="XCdc">    -17.91465741 </i>
    <i name="pawpsdc">    890.99180630 </i>
    <i name="pawaedc">   -856.03881819 </i>
    <i name="eentropy">      0.00000000 </i>
    <i name="bandstr">      6.74431174 </i>
    <i name="atom">    206.13270273 </i>
    <i name="e_fr_energy">    -10.83657726 </i>
    <i name="e_wo_entrp">    -10.83657726 </i>
    <i name="e_0_energy">    -10.83657726 </i>
   </energy>
  </scstep>
  <structure>
   <crystal>
    <varray name="basis" >
     <v>       3.82643698       0.00000000       0.00000000 </v>
     <v>       1.91321849       3.31379163      -0.00000000 </v>
     <v>       1.91321849       1.10459721       3.12427271 </v>
    </varray>
    <i name="volume">     39.61582434 </i>
    <varray name="rec_basis" >
     <v>       0.26133973      -0.15088456      -0.10669150 </v>
     <v>       0.00000000       0.30176912      -0.10669150 </v>
     <v>       0.00000000       0.00000000       0.32007449 </v>
    </varray>
   </crystal>
   <varray name="positions" >
    <v>       0.74999998       0.74999998       0.75000000 </v>
    <v>       0.50000001       0.49999999       0.50000000 </v>
   </varray>
  </structure>
  <varray name="forces" >
   <v>       0.00000000       0.00000000       0.00000000 </v>
   <v>      -0.00000000      -0.00000000      -0.00000000 </v>
  </varray>
  <varray name="stress" >
   <v>       0.20988483       0.00000000       0.00000000 </v>
   <v>       0.00000000       0.20988483       0.00000000 </v>
   <v>      -0.00000000       0.00000000       0.20988483 </v>
  </varray>
  <energy>
   <i name="e_fr_energy">    -11.29831488 </i>
   <i name="e_wo_entrp">    -11.29831488 </i>
   <i name="e_0_energy">      0.00000000 </i>
  </energy>
  <time name="totalsc">    4.17    4.37</time>
  <eigenvalues>
   <array>
    <dimension dim="1">band</dimension>
    <dimension dim="2">kpoint</dimension>
    <dimension dim="3">spin</dimension>
    <field>eigene</field>
    <field>occ</field>
    <set>
     <set comment="spin 1">
      <set comment="kpoint 1">
       <r>   -5.8904    1.0000 </r>
       <r>    4.3348    1.0000 </r>
       <r>    5.6438    1.0000 </r>
       <r>    5.6438    1.0000 </r>
       <r>    8.4699    0.0000 </r>
       <r>    8.9333    0.0000 </r>
       <r>    8.9333    0.0000 </r>
       <r>   10.7500    0.0000 </r>
       <r>   13.1742    0.0000 </r>
       <r>   13.1742    0.0000 </r>
       <r>   14.7290    0.0000 </r>
       <r>   16.6619    0.0000 </r>
       <r>   18.3964    0.0000 </r>
       <r>   18.3964    0.0000 </r>
       <r>   22.6505    0.0000 </r>
       <r>   27.1357    0.0000 </r>
       <r>   27.1357    0.0000 </r>
       <r>   27.4880    0.0000 </r>
       <r>   29.9340    0.0000 </r>
       <r>   29.9340    0.0000 </r>
       <r>   32.4854    0.0000 </r>
       <r>   32.4854    0.0000 </r>
       <r>   33.3665    0.0000 </r>
       <r>   35.4842    0.0000 </r>
       <r>   37.5155    0.0000 </r>
       <r>   37.5155    0.0000 </r>
       <r>   38.6838    0.0000 </r>
       <r>   40.5553    0.0000 </r>
       <r>   40.5553    0.0000 </r>
       <r>   42.9857    0.0000 </r>
       <r>   42.9857    0.0000 </r>
       <r>   44.8420    0.0000 </r>
       <r>   44.8420    0.0000 </r>
       <r>   45.1195    0.0000 </r>
       <r>   48.1115    0.0000 </r>
       <r>   48.1459    0.0000 </r>
      </set>
      <set comment="kpoint 2">
       <r>   -4.8340    1.0000 </r>
       <r>    1.2913    1.0000 </r>
       <r>    3.6056    1.0000 </r>
       <r>    5.1571    1.0000 </r>
       <r>    8.6900    0.0000 </r>
       <r>    9.6223    0.0000 </r>
       <r>    9.8025    0.0000 </r>
       <r>   12.2816    0.0000 </r>
       <r>   12.4058    0.0000 </r>
       <r>   15.8308    0.0000 </r>
       <r>   16.0809    0.0000 </r>
       <r>   18.4416    0.0000 </r>
       <r>   19.9944    0.0000 </r>
       <r>   21.4518    0.0000 </r>
       <r>   22.4121    0.0000 </r>
       <r>   24.1242    0.0000 </r>
       <r>   24.8770    0.0000 </r>
       <r>   27.8285    0.0000 </r>
       <r>   28.0493    0.0000 </r>
       <r>   29.0049    0.0000 </r>
       <r>   32.1880    0.0000 </r>
       <r>   32.6930    0.0000 </r>
       <r>   33.5266    0.0000 </r>
       <r>   35.6159    0.0000 </r>
       <r>   35.8418    0.0000 </r>
       <r>   37.1389    0.0000 </r>
       <r>   37.2423    0.0000 </r>
       <r>   38.3521    0.0000 </r>
       <r>   39.3213    0.0000 </r>
       <r>   40.4309    0.0000 </r>
       <r>   40.7359    0.0000 </r>
       <r>   43.2788    0.0000 </r>
       <r>   43.8491    0.0000 </r>
       <r>   44.7057    0.0000 </r>
       <r>   44.9289    0.0000 </r>
       <r>   46.0631    0.0000 </r>
      </set>
      <set comment="kpoint 3">
       <r>   -3.6514    1.0000 </r>
       <r>   -0.8545    1.0000 </r>
       <r>    3.6419    1.0000 </r>
       <r>    4.3608    1.0000 </r>
       <r>    8.1458    0.0000 </r>
       <r>    9.4658    0.0000 </r>
       <r>   10.0392    0.0000 </r>
       <r>   13.3400    0.0000 </r>
       <r>   14.9591    0.0000 </r>
       <r>   16.4505    0.0000 </r>
       <r>   17.5543    0.0000 </r>
       <r>   17.6491    0.0000 </r>
       <r>   18.5854    0.0000 </r>
       <r>   21.1044    0.0000 </r>
       <r>   24.3751    0.0000 </r>
       <r>   25.6926    0.0000 </r>
       <r>   26.3730    0.0000 </r>
       <r>   27.1493    0.0000 </r>
       <r>   28.0073    0.0000 </r>
       <r>   28.3828    0.0000 </r>
       <r>   30.8056    0.0000 </r>
       <r>   32.1103    0.0000 </r>
       <r>   32.4641    0.0000 </r>
       <r>   33.7108    0.0000 </r>
       <r>   34.2366    0.0000 </r>
       <r>   35.7860    0.0000 </r>
       <r>   36.1332    0.0000 </r>
       <r>   36.5399    0.0000 </r>
       <r>   38.9643    0.0000 </r>
       <r>   39.2722    0.0000 </r>
       <r>   39.9810    0.0000 </r>
       <r>   41.1953    0.0000 </r>
       <r>   43.4368    0.0000 </r>
       <r>   43.7518    0.0000 </r>
       <r>   44.9472    0.0000 </r>
       <r>   46.7871    0.0000 </r>
      </set>
      <set comment="kpoint 4">
       <r>   -5.3479    1.0000 </r>
       <r>    2.7053    1.0000 </r>
       <r>    4.6041    1.0000 </r>
       <r>    4.6869    1.0000 </r>
       <r>    8.0864    0.0000 </r>
       <r>    9.6901    0.0000 </r>
       <r>   10.4252    0.0000 </r>
       <r>   10.6902    0.0000 </r>
       <r>   13.5235    0.0000 </r>
       <r>   14.1345    0.0000 </r>
       <r>   16.0135    0.0000 </r>
       <r>   17.5795    0.0000 </r>
       <r>   19.1280    0.0000 </r>
       <r>   20.4048    0.0000 </r>
       <r>   23.6284    0.0000 </r>
       <r>   24.1503    0.0000 </r>
       <r>   25.3084    0.0000 </r>
       <r>   27.6211    0.0000 </r>
       <r>   27.6768    0.0000 </r>
       <r>   29.1321    0.0000 </r>
       <r>   32.4034    0.0000 </r>
       <r>   33.4296    0.0000 </r>
       <r>   34.4098    0.0000 </r>
       <r>   36.0154    0.0000 </r>
       <r>   37.5928    0.0000 </r>
       <r>   37.8861    0.0000 </r>
       <r>   38.2643    0.0000 </r>
       <r>   39.0983    0.0000 </r>
       <r>   39.6841    0.0000 </r>
       <r>   40.3635    0.0000 </r>
       <r>   41.9664    0.0000 </r>
       <r>   41.9945    0.0000 </r>
       <r>   44.4837    0.0000 </r>
       <r>   44.9879    0.0000 </r>
       <r>   46.3565    0.0000 </r>
       <r>   46.4995    0.0000 </r>
      </set>
      <set comment="kpoint 5">
       <r>   -4.2874    1.0000 </r>
       <r>    0.9861    1.0000 </r>
       <r>    3.2400    1.0000 </r>
       <r>    3.7073    1.0000 </r>
       <r>    7.2767    0.0000 </r>
       <r>    8.8248    0.0000 </r>
       <r>   11.9811    0.0000 </r>
       <r>   12.2358    0.0000 </r>
       <r>   15.9424    0.0000 </r>
       <r>   16.2374    0.0000 </r>
       <r>   17.6623    0.0000 </r>
       <r>   19.2107    0.0000 </r>
       <r>   19.7760    0.0000 </r>
       <r>   20.8517    0.0000 </r>
       <r>   21.8996    0.0000 </r>
       <r>   23.1393    0.0000 </r>
       <r>   24.4368    0.0000 </r>
       <r>   26.0022    0.0000 </r>
       <r>   27.9578    0.0000 </r>
       <r>   30.2478    0.0000 </r>
       <r>   31.3067    0.0000 </r>
       <r>   32.4521    0.0000 </r>
       <r>   32.5466    0.0000 </r>
       <r>   33.5419    0.0000 </r>
       <r>   35.0693    0.0000 </r>
       <r>   35.3604    0.0000 </r>
       <r>   36.6309    0.0000 </r>
       <r>   39.4670    0.0000 </r>
       <r>   39.4995    0.0000 </r>
       <r>   41.4158    0.0000 </r>
       <r>   42.7465    0.0000 </r>
       <r>   43.0504    0.0000 </r>
       <r>   43.2466    0.0000 </r>
       <r>   43.5676    0.0000 </r>
       <r>   45.6165    0.0000 </r>
       <r>   46.1923    0.0000 </r>
      </set>
      <set comment="kpoint 6">
       <r>   -2.5923    1.0000 </r>
       <r>   -1.0208    1.0000 </r>
       <r>    1.8322    1.0000 </r>
       <r>    2.9447    1.0000 </r>
       <r>    8.3203    0.0000 </r>
       <r>   10.2208    0.0000 </r>
       <r>   11.2473    0.0000 </r>
       <r>   13.4201    0.0000 </r>
       <r>   14.3893    0.0000 </r>
       <r>   17.0841    0.0000 </r>
       <r>   18.2459    0.0000 </r>
       <r>   20.3358    0.0000 </r>
       <r>   21.4028    0.0000 </r>
       <r>   22.0472    0.0000 </r>
       <r>   23.5551    0.0000 </r>
       <r>   24.4012    0.0000 </r>
       <r>   24.7964    0.0000 </r>
       <r>   25.4752    0.0000 </r>
       <r>   27.1461    0.0000 </r>
       <r>   27.8415    0.0000 </r>
       <r>   28.8327    0.0000 </r>
       <r>   30.2282    0.0000 </r>
       <r>   31.1299    0.0000 </r>
       <r>   33.6437    0.0000 </r>
       <r>   34.2663    0.0000 </r>
       <r>   35.0869    0.0000 </r>
       <r>   36.8386    0.0000 </r>
       <r>   37.4992    0.0000 </r>
       <r>   38.1491    0.0000 </r>
       <r>   38.7022    0.0000 </r>
       <r>   40.6995    0.0000 </r>
       <r>   42.7145    0.0000 </r>
       <r>   44.5162    0.0000 </r>
       <r>   45.4689    0.0000 </r>
       <r>   46.0107    0.0000 </r>
       <r>   47.0786    0.0000 </r>
      </set>
      <set comment="kpoint 7">
       <r>   -3.8563    1.0000 </r>
       <r>    0.0709    1.0000 </r>
       <r>    2.5856    1.0000 </r>
       <r>    3.9882    1.0000 </r>
       <r>    8.8193    0.0000 </r>
       <r>    9.5027    0.0000 </r>
       <r>   10.9764    0.0000 </r>
       <r>   11.9017    0.0000 </r>
       <r>   15.0033    0.0000 </r>
       <r>   15.7252    0.0000 </r>
       <r>   17.9863    0.0000 </r>
       <r>   18.9752    0.0000 </r>
       <r>   20.2664    0.0000 </r>
       <r>   21.1522    0.0000 </r>
       <r>   23.2940    0.0000 </r>
       <r>   24.3119    0.0000 </r>
       <r>   25.0602    0.0000 </r>
       <r>   27.0413    0.0000 </r>
       <r>   27.9138    0.0000 </r>
       <r>   28.8887    0.0000 </r>
       <r>   30.3657    0.0000 </r>
       <r>   31.8111    0.0000 </r>
       <r>   32.1348    0.0000 </r>
       <r>   33.3717    0.0000 </r>
       <r>   34.9151    0.0000 </r>
       <r>   35.7559    0.0000 </r>
       <r>   37.3591    0.0000 </r>
       <r>   37.4957    0.0000 </r>
       <r>   38.5969    0.0000 </r>
       <r>   39.3519    0.0000 </r>
       <r>   41.1393    0.0000 </r>
       <r>   42.0898    0.0000 </r>
       <r>   42.6431    0.0000 </r>
       <r>   45.1655    0.0000 </r>
       <r>   45.5285    0.0000 </r>
       <r>   47.1868    0.0000 </r>
      </set>
      <set comment="kpoint 8">
       <r>   -2.7728    1.0000 </r>
       <r>   -0.9164    1.0000 </r>
       <r>    2.4644    1.0000 </r>
       <r>    3.2290    1.0000 </r>
       <r>    6.8114    0.0000 </r>
       <r>    7.8935    0.0000 </r>
       <r>   14.2483    0.0000 </r>
       <r>   14.3557    0.0000 </r>
       <r>   16.7761    0.0000 </r>
       <r>   16.7873    0.0000 </r>
       <r>   18.2976    0.0000 </r>
       <r>   18.9519    0.0000 </r>
       <r>   20.9437    0.0000 </r>
       <r>   21.0042    0.0000 </r>
       <r>   21.9495    0.0000 </r>
       <r>   24.7364    0.0000 </r>
       <r>   24.8660    0.0000 </r>
       <r>   25.4642    0.0000 </r>
       <r>   26.8656    0.0000 </r>
       <r>   28.3665    0.0000 </r>
       <r>   28.8559    0.0000 </r>
       <r>   29.5672    0.0000 </r>
       <r>   30.2006    0.0000 </r>
       <r>   31.9379    0.0000 </r>
       <r>   35.5052    0.0000 </r>
       <r>   36.2184    0.0000 </r>
       <r>   38.0640    0.0000 </r>
       <r>   39.0611    0.0000 </r>
       <r>   39.0925    0.0000 </r>
       <r>   40.7306    0.0000 </r>
       <r>   41.7493    0.0000 </r>
       <r>   43.0230    0.0000 </r>
       <r>   43.5965    0.0000 </r>
       <r>   44.9567    0.0000 </r>
       <r>   46.0483    0.0000 </r>
       <r>   46.4359    0.0000 </r>
      </set>
      <set comment="kpoint 9">
       <r>   -4.3854    1.0000 </r>
       <r>   -0.0465    1.0000 </r>
       <r>    4.8415    1.0000 </r>
       <r>    4.8415    1.0000 </r>
       <r>    7.6409    0.0000 </r>
       <r>    9.3855    0.0000 </r>
       <r>    9.3855    0.0000 </r>
       <r>   13.8417    0.0000 </r>
       <r>   14.5389    0.0000 </r>
       <r>   14.5389    0.0000 </r>
       <r>   15.7227    0.0000 </r>
       <r>   19.7638    0.0000 </r>
       <r>   19.7638    0.0000 </r>
       <r>   20.1600    0.0000 </r>
       <r>   22.7222    0.0000 </r>
       <r>   24.5704    0.0000 </r>
       <r>   24.5704    0.0000 </r>
       <r>   29.0608    0.0000 </r>
       <r>   29.9511    0.0000 </r>
       <r>   29.9511    0.0000 </r>
       <r>   29.9733    0.0000 </r>
       <r>   32.9559    0.0000 </r>
       <r>   32.9559    0.0000 </r>
       <r>   34.4808    0.0000 </r>
       <r>   34.4808    0.0000 </r>
       <r>   36.0192    0.0000 </r>
       <r>   36.6987    0.0000 </r>
       <r>   38.7739    0.0000 </r>
       <r>   38.7739    0.0000 </r>
       <r>   39.7254    0.0000 </r>
       <r>   39.7254    0.0000 </r>
       <r>   40.9156    0.0000 </r>
       <r>   43.4436    0.0000 </r>
       <r>   43.7774    0.0000 </r>
       <r>   47.0223    0.0000 </r>
       <r>   47.0225    0.0000 </r>
      </set>
      <set comment="kpoint 10">
       <r>   -3.1425    1.0000 </r>
       <r>   -0.7359    1.0000 </r>
       <r>    1.9049    1.0000 </r>
       <r>    4.0331    1.0000 </r>
       <r>    7.7742    0.0000 </r>
       <r>   11.4313    0.0000 </r>
       <r>   11.4350    0.0000 </r>
       <r>   12.9372    0.0000 </r>
       <r>   13.9336    0.0000 </r>
       <r>   14.0226    0.0000 </r>
       <r>   18.5649    0.0000 </r>
       <r>   20.8365    0.0000 </r>
       <r>   21.2126    0.0000 </r>
       <r>   22.0627    0.0000 </r>
       <r>   22.4967    0.0000 </r>
       <r>   24.4385    0.0000 </r>
       <r>   25.5141    0.0000 </r>
       <r>   26.0404    0.0000 </r>
       <r>   27.8925    0.0000 </r>
       <r>   28.1528    0.0000 </r>
       <r>   30.7926    0.0000 </r>
       <r>   31.4883    0.0000 </r>
       <r>   31.8968    0.0000 </r>
       <r>   32.4371    0.0000 </r>
       <r>   34.0379    0.0000 </r>
       <r>   34.8184    0.0000 </r>
       <r>   35.4889    0.0000 </r>
       <r>   36.2244    0.0000 </r>
       <r>   39.6069    0.0000 </r>
       <r>   40.2934    0.0000 </r>
       <r>   41.9908    0.0000 </r>
       <r>   42.2481    0.0000 </r>
       <r>   43.1549    0.0000 </r>
       <r>   43.6325    0.0000 </r>
       <r>   44.3180    0.0000 </r>
       <r>   46.2850    0.0000 </r>
      </set>
     </set>
     <set comment="spin 2">
      <set comment="kpoint 1">
       <r>   -5.8905    1.0000 </r>
       <r>    4.3344    1.0000 </r>
       <r>    5.6433    1.0000 </r>
       <r>    5.6433    1.0000 </r>
       <r>    8.4701    0.0000 </r>
       <r>    8.9335    0.0000 </r>
       <r>    8.9335    0.0000 </r>
       <r>   10.7499    0.0000 </r>
       <r>   13.1745    0.0000 </r>
       <r>   13.1745    0.0000 </r>
       <r>   14.7300    0.0000 </r>
       <r>   16.6629    0.0000 </r>
       <r>   18.3972    0.0000 </r>
       <r>   18.3972    0.0000 </r>
       <r>   22.6519    0.0000 </r>
       <r>   27.1358    0.0000 </r>
       <r>   27.1358    0.0000 </r>
       <r>   27.4882    0.0000 </r>
       <r>   29.9340    0.0000 </r>
       <r>   29.9340    0.0000 </r>
       <r>   32.4853    0.0000 </r>
       <r>   32.4853    0.0000 </r>
       <r>   33.3664    0.0000 </r>
       <r>   35.4842    0.0000 </r>
       <r>   37.5155    0.0000 </r>
       <r>   37.5155    0.0000 </r>
       <r>   38.6842    0.0000 </r>
       <r>   40.5557    0.0000 </r>
       <r>   40.5557    0.0000 </r>
       <r>   42.9861    0.0000 </r>
       <r>   42.9861    0.0000 </r>
       <r>   44.8424    0.0000 </r>
       <r>   44.8424    0.0000 </r>
       <r>   45.1206    0.0000 </r>
       <r>   48.1125    0.0000 </r>
       <r>   48.1411    0.0000 </r>
      </set>
      <set comment="kpoint 2">
       <r>   -4.8342    1.0000 </r>
       <r>    1.2911    1.0000 </r>
       <r>    3.6055    1.0000 </r>
       <r>    5.1567    1.0000 </r>
       <r>    8.6901    0.0000 </r>
       <r>    9.6226    0.0000 </r>
       <r>    9.8027    0.0000 </r>
       <r>   12.2819    0.0000 </r>
       <r>   12.4061    0.0000 </r>
       <r>   15.8316    0.0000 </r>
       <r>   16.0808    0.0000 </r>
       <r>   18.4422    0.0000 </r>
       <r>   19.9947    0.0000 </r>
       <r>   21.4525    0.0000 </r>
       <r>   22.4123    0.0000 </r>
       <r>   24.1243    0.0000 </r>
       <r>   24.8773    0.0000 </r>
       <r>   27.8296    0.0000 </r>
       <r>   28.0494    0.0000 </r>
       <r>   29.0050    0.0000 </r>
       <r>   32.1879    0.0000 </r>
       <r>   32.6929    0.0000 </r>
       <r>   33.5269    0.0000 </r>
       <r>   35.6162    0.0000 </r>
       <r>   35.8421    0.0000 </r>
       <r>   37.1394    0.0000 </r>
       <r>   37.2427    0.0000 </r>
       <r>   38.3525    0.0000 </r>
       <r>   39.3214    0.0000 </r>
       <r>   40.4314    0.0000 </r>
       <r>   40.7364    0.0000 </r>
       <r>   43.2789    0.0000 </r>
       <r>   43.8501    0.0000 </r>
       <r>   44.7060    0.0000 </r>
       <r>   44.9297    0.0000 </r>
       <r>   46.0634    0.0000 </r>
      </set>
      <set comment="kpoint 3">
       <r>   -3.6516    1.0000 </r>
       <r>   -0.8545    1.0000 </r>
       <r>    3.6416    1.0000 </r>
       <r>    4.3605    1.0000 </r>
       <r>    8.1461    0.0000 </r>
       <r>    9.4660    0.0000 </r>
       <r>   10.0395    0.0000 </r>
       <r>   13.3403    0.0000 </r>
       <r>   14.9599    0.0000 </r>
       <r>   16.4505    0.0000 </r>
       <r>   17.5546    0.0000 </r>
       <r>   17.6493    0.0000 </r>
       <r>   18.5855    0.0000 </r>
       <r>   21.1045    0.0000 </r>
       <r>   24.3754    0.0000 </r>
       <r>   25.6931    0.0000 </r>
       <r>   26.3735    0.0000 </r>
       <r>   27.1496    0.0000 </r>
       <r>   28.0073    0.0000 </r>
       <r>   28.3831    0.0000 </r>
       <r>   30.8058    0.0000 </r>
       <r>   32.1112    0.0000 </r>
       <r>   32.4645    0.0000 </r>
       <r>   33.7107    0.0000 </r>
       <r>   34.2369    0.0000 </r>
       <r>   35.7869    0.0000 </r>
       <r>   36.1337    0.0000 </r>
       <r>   36.5404    0.0000 </r>
       <r>   38.9650    0.0000 </r>
       <r>   39.2720    0.0000 </r>
       <r>   39.9816    0.0000 </r>
       <r>   41.1956    0.0000 </r>
       <r>   43.4373    0.0000 </r>
       <r>   43.7524    0.0000 </r>
       <r>   44.9480    0.0000 </r>
       <r>   46.7875    0.0000 </r>
      </set>
      <set comment="kpoint 4">
       <r>   -5.3480    1.0000 </r>
       <r>    2.7050    1.0000 </r>
       <r>    4.6038    1.0000 </r>
       <r>    4.6865    1.0000 </r>
       <r>    8.0867    0.0000 </r>
       <r>    9.6902    0.0000 </r>
       <r>   10.4253    0.0000 </r>
       <r>   10.6906    0.0000 </r>
       <r>   13.5234    0.0000 </r>
       <r>   14.1346    0.0000 </r>
       <r>   16.0144    0.0000 </r>
       <r>   17.5803    0.0000 </r>
       <r>   19.1287    0.0000 </r>
       <r>   20.4055    0.0000 </r>
       <r>   23.6285    0.0000 </r>
       <r>   24.1505    0.0000 </r>
       <r>   25.3094    0.0000 </r>
       <r>   27.6211    0.0000 </r>
       <r>   27.6769    0.0000 </r>
       <r>   29.1322    0.0000 </r>
       <r>   32.4034    0.0000 </r>
       <r>   33.4294    0.0000 </r>
       <r>   34.4097    0.0000 </r>
       <r>   36.0158    0.0000 </r>
       <r>   37.5932    0.0000 </r>
       <r>   37.8862    0.0000 </r>
       <r>   38.2648    0.0000 </r>
       <r>   39.0985    0.0000 </r>
       <r>   39.6845    0.0000 </r>
       <r>   40.3637    0.0000 </r>
       <r>   41.9666    0.0000 </r>
       <r>   41.9948    0.0000 </r>
       <r>   44.4840    0.0000 </r>
       <r>   44.9884    0.0000 </r>
       <r>   46.3570    0.0000 </r>
       <r>   46.5012    0.0000 </r>
      </set>
      <set comment="kpoint 5">
       <r>   -4.2875    1.0000 </r>
       <r>    0.9857    1.0000 </r>
       <r>    3.2399    1.0000 </r>
       <r>    3.7070    1.0000 </r>
       <r>    7.2771    0.0000 </r>
       <r>    8.8253    0.0000 </r>
       <r>   11.9810    0.0000 </r>
       <r>   12.2358    0.0000 </r>
       <r>   15.9425    0.0000 </r>
       <r>   16.2373    0.0000 </r>
       <r>   17.6630    0.0000 </r>
       <r>   19.2109    0.0000 </r>
       <r>   19.7768    0.0000 </r>
       <r>   20.8520    0.0000 </r>
       <r>   21.9003    0.0000 </r>
       <r>   23.1400    0.0000 </r>
       <r>   24.4369    0.0000 </r>
       <r>   26.0022    0.0000 </r>
       <r>   27.9581    0.0000 </r>
       <r>   30.2484    0.0000 </r>
       <r>   31.3071    0.0000 </r>
       <r>   32.4524    0.0000 </r>
       <r>   32.5471    0.0000 </r>
       <r>   33.5425    0.0000 </r>
       <r>   35.0694    0.0000 </r>
       <r>   35.3607    0.0000 </r>
       <r>   36.6311    0.0000 </r>
       <r>   39.4672    0.0000 </r>
       <r>   39.4999    0.0000 </r>
       <r>   41.4162    0.0000 </r>
       <r>   42.7469    0.0000 </r>
       <r>   43.0505    0.0000 </r>
       <r>   43.2470    0.0000 </r>
       <r>   43.5681    0.0000 </r>
       <r>   45.6171    0.0000 </r>
       <r>   46.1930    0.0000 </r>
      </set>
      <set comment="kpoint 6">
       <r>   -2.5926    1.0000 </r>
       <r>   -1.0210    1.0000 </r>
       <r>    1.8324    1.0000 </r>
       <r>    2.9446    1.0000 </r>
       <r>    8.3207    0.0000 </r>
       <r>   10.2210    0.0000 </r>
       <r>   11.2474    0.0000 </r>
       <r>   13.4203    0.0000 </r>
       <r>   14.3893    0.0000 </r>
       <r>   17.0841    0.0000 </r>
       <r>   18.2459    0.0000 </r>
       <r>   20.3365    0.0000 </r>
       <r>   21.4028    0.0000 </r>
       <r>   22.0471    0.0000 </r>
       <r>   23.5557    0.0000 </r>
       <r>   24.4019    0.0000 </r>
       <r>   24.7964    0.0000 </r>
       <r>   25.4751    0.0000 </r>
       <r>   27.1468    0.0000 </r>
       <r>   27.8417    0.0000 </r>
       <r>   28.8331    0.0000 </r>
       <r>   30.2288    0.0000 </r>
       <r>   31.1305    0.0000 </r>
       <r>   33.6443    0.0000 </r>
       <r>   34.2669    0.0000 </r>
       <r>   35.0874    0.0000 </r>
       <r>   36.8391    0.0000 </r>
       <r>   37.4997    0.0000 </r>
       <r>   38.1496    0.0000 </r>
       <r>   38.7025    0.0000 </r>
       <r>   40.7001    0.0000 </r>
       <r>   42.7148    0.0000 </r>
       <r>   44.5164    0.0000 </r>
       <r>   45.4694    0.0000 </r>
       <r>   46.0114    0.0000 </r>
       <r>   47.0792    0.0000 </r>
      </set>
      <set comment="kpoint 7">
       <r>   -3.8565    1.0000 </r>
       <r>    0.0707    1.0000 </r>
       <r>    2.5855    1.0000 </r>
       <r>    3.9879    1.0000 </r>
       <r>    8.8196    0.0000 </r>
       <r>    9.5030    0.0000 </r>
       <r>   10.9767    0.0000 </r>
       <r>   11.9017    0.0000 </r>
       <r>   15.0034    0.0000 </r>
       <r>   15.7255    0.0000 </r>
       <r>   17.9869    0.0000 </r>
       <r>   18.9751    0.0000 </r>
       <r>   20.2666    0.0000 </r>
       <r>   21.1527    0.0000 </r>
       <r>   23.2946    0.0000 </r>
       <r>   24.3119    0.0000 </r>
       <r>   25.0603    0.0000 </r>
       <r>   27.0417    0.0000 </r>
       <r>   27.9140    0.0000 </r>
       <r>   28.8890    0.0000 </r>
       <r>   30.3658    0.0000 </r>
       <r>   31.8119    0.0000 </r>
       <r>   32.1356    0.0000 </r>
       <r>   33.3719    0.0000 </r>
       <r>   34.9156    0.0000 </r>
       <r>   35.7564    0.0000 </r>
       <r>   37.3594    0.0000 </r>
       <r>   37.4960    0.0000 </r>
       <r>   38.5973    0.0000 </r>
       <r>   39.3524    0.0000 </r>
       <r>   41.1397    0.0000 </r>
       <r>   42.0900    0.0000 </r>
       <r>   42.6436    0.0000 </r>
       <r>   45.1660    0.0000 </r>
       <r>   45.5287    0.0000 </r>
       <r>   47.1874    0.0000 </r>
      </set>
      <set comment="kpoint 8">
       <r>   -2.7731    1.0000 </r>
       <r>   -0.9167    1.0000 </r>
       <r>    2.4644    1.0000 </r>
       <r>    3.2288    1.0000 </r>
       <r>    6.8120    0.0000 </r>
       <r>    7.8940    0.0000 </r>
       <r>   14.2484    0.0000 </r>
       <r>   14.3557    0.0000 </r>
       <r>   16.7762    0.0000 </r>
       <r>   16.7873    0.0000 </r>
       <r>   18.2975    0.0000 </r>
       <r>   18.9519    0.0000 </r>
       <r>   20.9437    0.0000 </r>
       <r>   21.0043    0.0000 </r>
       <r>   21.9503    0.0000 </r>
       <r>   24.7372    0.0000 </r>
       <r>   24.8665    0.0000 </r>
       <r>   25.4650    0.0000 </r>
       <r>   26.8660    0.0000 </r>
       <r>   28.3671    0.0000 </r>
       <r>   28.8566    0.0000 </r>
       <r>   29.5673    0.0000 </r>
       <r>   30.2011    0.0000 </r>
       <r>   31.9381    0.0000 </r>
       <r>   35.5049    0.0000 </r>
       <r>   36.2188    0.0000 </r>
       <r>   38.0643    0.0000 </r>
       <r>   39.0617    0.0000 </r>
       <r>   39.0929    0.0000 </r>
       <r>   40.7312    0.0000 </r>
       <r>   41.7498    0.0000 </r>
       <r>   43.0236    0.0000 </r>
       <r>   43.5974    0.0000 </r>
       <r>   44.9573    0.0000 </r>
       <r>   46.0488    0.0000 </r>
       <r>   46.4359    0.0000 </r>
      </set>
      <set comment="kpoint 9">
       <r>   -4.3856    1.0000 </r>
       <r>   -0.0466    1.0000 </r>
       <r>    4.8410    1.0000 </r>
       <r>    4.8410    1.0000 </r>
       <r>    7.6411    0.0000 </r>
       <r>    9.3859    0.0000 </r>
       <r>    9.3859    0.0000 </r>
       <r>   13.8427    0.0000 </r>
       <r>   14.5390    0.0000 </r>
       <r>   14.5390    0.0000 </r>
       <r>   15.7229    0.0000 </r>
       <r>   19.7639    0.0000 </r>
       <r>   19.7639    0.0000 </r>
       <r>   20.1604    0.0000 </r>
       <r>   22.7224    0.0000 </r>
       <r>   24.5709    0.0000 </r>
       <r>   24.5709    0.0000 </r>
       <r>   29.0621    0.0000 </r>
       <r>   29.9513    0.0000 </r>
       <r>   29.9513    0.0000 </r>
       <r>   29.9735    0.0000 </r>
       <r>   32.9558    0.0000 </r>
       <r>   32.9558    0.0000 </r>
       <r>   34.4810    0.0000 </r>
       <r>   34.4810    0.0000 </r>
       <r>   36.0199    0.0000 </r>
       <r>   36.6986    0.0000 </r>
       <r>   38.7745    0.0000 </r>
       <r>   38.7745    0.0000 </r>
       <r>   39.7259    0.0000 </r>
       <r>   39.7259    0.0000 </r>
       <r>   40.9165    0.0000 </r>
       <r>   43.4442    0.0000 </r>
       <r>   43.7782    0.0000 </r>
       <r>   47.0228    0.0000 </r>
       <r>   47.0228    0.0000 </r>
      </set>
      <set comment="kpoint 10">
       <r>   -3.1427    1.0000 </r>
       <r>   -0.7360    1.0000 </r>
       <r>    1.9049    1.0000 </r>
       <r>    4.0328    1.0000 </r>
       <r>    7.7747    0.0000 </r>
       <r>   11.4313    0.0000 </r>
       <r>   11.4352    0.0000 </r>
       <r>   12.9374    0.0000 </r>
       <r>   13.9337    0.0000 </r>
       <r>   14.0228    0.0000 </r>
       <r>   18.5657    0.0000 </r>
       <r>   20.8364    0.0000 </r>
       <r>   21.2128    0.0000 </r>
       <r>   22.0628    0.0000 </r>
       <r>   22.4970    0.0000 </r>
       <r>   24.4384    0.0000 </r>
       <r>   25.5141    0.0000 </r>
       <r>   26.0408    0.0000 </r>
       <r>   27.8928    0.0000 </r>
       <r>   28.1534    0.0000 </r>
       <r>   30.7932    0.0000 </r>
       <r>   31.4889    0.0000 </r>
       <r>   31.8973    0.0000 </r>
       <r>   32.4377    0.0000 </r>
       <r>   34.0387    0.0000 </r>
       <r>   34.8189    0.0000 </r>
       <r>   35.4888    0.0000 </r>
       <r>   36.2250    0.0000 </r>
       <r>   39.6076    0.0000 </r>
       <r>   40.2940    0.0000 </r>
       <r>   41.9913    0.0000 </r>
       <r>   42.2485    0.0000 </r>
       <r>   43.1554    0.0000 </r>
       <r>   43.6323    0.0000 </r>
       <r>   44.3186    0.0000 </r>
       <r>   46.2858    0.0000 </r>
      </set>
     </set>
    </set>
   </array>
  </eigenvalues>
  <separator name="orbital magnetization" >
   <v name="MAGDIPOLOUT">      0.00000000      0.00000000      0.00000000</v>
  </separator>
  <dos>
   <i name="efermi">      5.72281151 </i>
   <total>
    <array>
     <dimension dim="1">gridpoints</dimension>
     <dimension dim="2">spin</dimension>
     <field>energy</field>
     <field>total</field>
     <field>integrated</field>
     <set>
      <set comment="spin 1">
       <r>    -8.5923     0.0000     0.0000 </r>
       <r>    -8.3942     0.0000     0.0000 </r>
       <r>    -8.1961     0.0000     0.0000 </r>
       <r>    -7.9979     0.0000     0.0000 </r>
       <r>    -7.7998     0.0000     0.0000 </r>
       <r>    -7.6017     0.0000     0.0000 </r>
       <r>    -7.4035     0.0000     0.0000 </r>
       <r>    -7.2054     0.0000     0.0000 </r>
       <r>    -7.0073     0.0000     0.0000 </r>
       <r>    -6.8091     0.0000     0.0000 </r>
       <r>    -6.6110     0.0000     0.0000 </r>
       <r>    -6.4129     0.0000     0.0000 </r>
       <r>    -6.2147     0.0000     0.0000 </r>
       <r>    -6.0166     0.0000     0.0000 </r>
       <r>    -5.8185     0.0553     0.0074 </r>
       <r>    -5.6203     0.0943     0.0221 </r>
       <r>    -5.4222     0.1412     0.0453 </r>
       <r>    -5.2241     0.1568     0.0751 </r>
       <r>    -5.0259     0.1773     0.1082 </r>
       <r>    -4.8278     0.1949     0.1451 </r>
       <r>    -4.6297     0.2235     0.1865 </r>
       <r>    -4.4315     0.2603     0.2343 </r>
       <r>    -4.2334     0.3015     0.2902 </r>
       <r>    -4.0353     0.3383     0.3537 </r>
       <r>    -3.8371     0.3959     0.4241 </r>
       <r>    -3.6390     0.4139     0.5234 </r>
       <r>    -3.4409     0.4001     0.6043 </r>
       <r>    -3.2427     0.3707     0.6810 </r>
       <r>    -3.0446     0.3712     0.7525 </r>
       <r>    -2.8465     0.3911     0.8285 </r>
       <r>    -2.6483     0.5810     0.9448 </r>
       <r>    -2.4502     0.0000     1.0000 </r>
       <r>    -2.2521     0.0000     1.0000 </r>
       <r>    -2.0539     0.0000     1.0000 </r>
       <r>    -1.8558     0.0000     1.0000 </r>
       <r>    -1.6577     0.0000     1.0000 </r>
       <r>    -1.4595     0.0000     1.0000 </r>
       <r>    -1.2614     0.0000     1.0000 </r>
       <r>    -1.0633     0.0000     1.0000 </r>
       <r>    -0.8651     0.7368     1.1834 </r>
       <r>    -0.6670     0.5146     1.3112 </r>
       <r>    -0.4689     0.4554     1.4074 </r>
       <r>    -0.2707     0.3882     1.4911 </r>
       <r>    -0.0726     0.3127     1.5607 </r>
       <r>     0.1255     0.2415     1.6150 </r>
       <r>     0.3237     0.2177     1.6605 </r>
       <r>     0.5218     0.1957     1.7014 </r>
       <r>     0.7199     0.1755     1.7381 </r>
       <r>     0.9181     0.1570     1.7710 </r>
       <r>     1.1162     0.1363     1.8003 </r>
       <r>     1.3143     0.1163     1.8251 </r>
       <r>     1.5125     0.1065     1.8472 </r>
       <r>     1.7106     0.0970     1.8673 </r>
       <r>     1.9087     0.5607     1.9735 </r>
       <r>     2.1069     0.5758     2.0865 </r>
       <r>     2.3050     0.5659     2.2000 </r>
       <r>     2.5031     0.4869     2.3191 </r>
       <r>     2.7013     0.4365     2.4100 </r>
       <r>     2.8994     0.4042     2.4931 </r>
       <r>     3.0975     0.8177     2.6548 </r>
       <r>     3.2957     0.7489     2.8275 </r>
       <r>     3.4938     0.7559     2.9769 </r>
       <r>     3.6919     0.7422     3.1297 </r>
       <r>     3.8901     0.6809     3.2685 </r>
       <r>     4.0882     0.7518     3.4222 </r>
       <r>     4.2863     0.6472     3.5607 </r>
       <r>     4.4845     0.5123     3.6825 </r>
       <r>     4.6826     0.4142     3.7740 </r>
       <r>     4.8807     0.3982     3.8620 </r>
       <r>     5.0789     0.2481     3.9276 </r>
       <r>     5.2770     0.1282     3.9612 </r>
       <r>     5.4751     0.0797     3.9816 </r>
       <r>     5.6733     0.0000     4.0000 </r>
       <r>     5.8714     0.0000     4.0000 </r>
       <r>     6.0695     0.0000     4.0000 </r>
       <r>     6.2677     0.0000     4.0000 </r>
       <r>     6.4658     0.0000     4.0000 </r>
       <r>     6.6639     0.0000     4.0000 </r>
       <r>     6.8621     0.0905     4.0161 </r>
       <r>     7.0602     0.1307     4.0379 </r>
       <r>     7.2583     0.1782     4.0684 </r>
       <r>     7.4565     0.2084     4.1048 </r>
       <r>     7.6546     0.2748     4.1523 </r>
       <r>     7.8527     0.4842     4.2224 </r>
       <r>     8.0509     0.8531     4.3694 </r>
       <r>     8.2490     1.2128     4.5910 </r>
       <r>     8.4471     1.0219     4.8400 </r>
       <r>     8.6453     0.6523     5.0059 </r>
       <r>     8.8434     0.1477     5.0969 </r>
       <r>     9.0416     0.2952     5.1475 </r>
       <r>     9.2397     0.4592     5.2214 </r>
       <r>     9.4378     1.0653     5.3412 </r>
       <r>     9.6360     1.2609     5.6316 </r>
       <r>     9.8341     0.5807     5.7710 </r>
       <r>    10.0322     0.6525     5.8946 </r>
       <r>    10.2304     0.6142     6.0504 </r>
       <r>    10.4285     0.5260     6.1689 </r>
       <r>    10.6266     0.4893     6.2694 </r>
       <r>    10.8248     0.5388     6.4115 </r>
       <r>    11.0229     0.6371     6.5198 </r>
       <r>    11.2210     0.9015     6.6744 </r>
       <r>    11.4192     0.4179     6.8590 </r>
       <r>    11.6173     0.3174     6.9251 </r>
       <r>    11.8154     0.2993     6.9860 </r>
       <r>    12.0136     0.4793     7.0599 </r>
       <r>    12.2117     0.5965     7.1682 </r>
       <r>    12.4098     0.4628     7.2647 </r>
       <r>    12.6080     0.5216     7.3624 </r>
       <r>    12.8061     0.5694     7.4706 </r>
       <r>    13.0042     0.6275     7.5880 </r>
       <r>    13.2024     0.8140     7.7320 </r>
       <r>    13.4005     0.8020     7.9042 </r>
       <r>    13.5986     0.4392     8.0433 </r>
       <r>    13.7968     0.3805     8.1240 </r>
       <r>    13.9949     0.4119     8.1985 </r>
       <r>    14.1930     0.5670     8.2960 </r>
       <r>    14.3912     0.6376     8.4690 </r>
       <r>    14.5893     0.7195     8.6034 </r>
       <r>    14.7874     0.8050     8.7581 </r>
       <r>    14.9856     0.8513     8.9317 </r>
       <r>    15.1837     0.5422     9.0401 </r>
       <r>    15.3818     0.5716     9.1503 </r>
       <r>    15.5800     0.6088     9.2671 </r>
       <r>    15.7781     0.8468     9.4030 </r>
       <r>    15.9762     0.7592     9.5551 </r>
       <r>    16.1744     0.6414     9.7126 </r>
       <r>    16.3725     0.6287     9.8390 </r>
       <r>    16.5706     0.5456     9.9583 </r>
       <r>    16.7688     0.5359    10.0693 </r>
       <r>    16.9669     0.5606    10.2064 </r>
       <r>    17.1650     0.2522    10.3140 </r>
       <r>    17.3632     0.2799    10.3667 </r>
       <r>    17.5613     0.3513    10.4293 </r>
       <r>    17.7594     0.5393    10.5170 </r>
       <r>    17.9576     0.7909    10.6480 </r>
       <r>    18.1557     1.1396    10.8421 </r>
       <r>    18.3538     0.8244    11.1529 </r>
       <r>    18.5520     0.4073    11.2834 </r>
       <r>    18.7501     0.4930    11.3756 </r>
       <r>    18.9482     0.5795    11.4818 </r>
       <r>    19.1464     0.7851    11.6592 </r>
       <r>    19.3445     0.6646    11.7955 </r>
       <r>    19.5426     0.7067    11.9313 </r>
       <r>    19.7408     0.7525    12.0758 </r>
       <r>    19.9389     0.8010    12.2286 </r>
       <r>    20.1370     0.7303    12.3837 </r>
       <r>    20.3352     0.6095    12.5154 </r>
       <r>    20.5333     0.7019    12.6743 </r>
       <r>    20.7314     0.7178    12.8148 </r>
       <r>    20.9296     1.0038    12.9738 </r>
       <r>    21.1277     1.5063    13.2440 </r>
       <r>    21.3258     1.2653    13.5188 </r>
       <r>    21.5240     0.5252    13.7019 </r>
       <r>    21.7221     0.4725    13.8011 </r>
       <r>    21.9202     0.9150    13.8983 </r>
       <r>    22.1184     0.1682    14.0614 </r>
       <r>    22.3165     0.2380    14.1015 </r>
       <r>    22.5146     0.4236    14.1621 </r>
       <r>    22.7128     0.6141    14.2702 </r>
       <r>    22.9109     0.6802    14.3986 </r>
       <r>    23.1090     0.7392    14.5393 </r>
       <r>    23.3072     0.8088    14.6998 </r>
       <r>    23.5053     0.7979    14.8609 </r>
       <r>    23.7034     0.3892    14.9876 </r>
       <r>    23.9016     0.4109    15.0665 </r>
       <r>    24.0997     0.4512    15.1516 </r>
       <r>    24.2978     0.7399    15.3184 </r>
       <r>    24.4960     0.9818    15.6523 </r>
       <r>    24.6941     1.0023    15.8454 </r>
       <r>    24.8922     1.4833    16.1886 </r>
       <r>    25.0904     1.1803    16.4622 </r>
       <r>    25.2885     0.7798    16.6567 </r>
       <r>    25.4866     0.8532    16.8722 </r>
       <r>    25.6848     0.7250    17.0269 </r>
       <r>    25.8829     0.5885    17.1579 </r>
       <r>    26.0810     0.4563    17.2607 </r>
       <r>    26.2792     0.4155    17.3470 </r>
       <r>    26.4773     0.3646    17.4271 </r>
       <r>    26.6754     0.3599    17.4989 </r>
       <r>    26.8736     0.5462    17.5827 </r>
       <r>    27.0717     0.7866    17.7085 </r>
       <r>    27.2698     0.7153    17.8985 </r>
       <r>    27.4680     0.7378    18.0425 </r>
       <r>    27.6661     1.0056    18.2548 </r>
       <r>    27.8642     1.7077    18.5207 </r>
       <r>    28.0624     0.8129    18.9405 </r>
       <r>    28.2605     0.8404    19.1052 </r>
       <r>    28.4586     0.6954    19.2715 </r>
       <r>    28.6568     0.6069    19.4004 </r>
       <r>    28.8549     2.7400    19.5946 </r>
       <r>    29.0531     0.9264    19.7708 </r>
       <r>    29.2512     0.6923    19.9294 </r>
       <r>    29.4493     0.5862    20.0559 </r>
       <r>    29.6475     0.5801    20.1808 </r>
       <r>    29.8456     0.5249    20.2900 </r>
       <r>    30.0437     0.4689    20.3943 </r>
       <r>    30.2419     0.5617    20.5288 </r>
       <r>    30.4400     0.7308    20.6502 </r>
       <r>    30.6381     0.8414    20.8077 </r>
       <r>    30.8363     0.6261    20.9768 </r>
       <r>    31.0344     0.6307    21.1011 </r>
       <r>    31.2325     0.7076    21.2573 </r>
       <r>    31.4307     0.7357    21.4006 </r>
       <r>    31.6288     0.8072    21.5517 </r>
       <r>    31.8269     0.8676    21.7217 </r>
       <r>    32.0251     1.0147    21.9166 </r>
       <r>    32.2232     1.0130    22.1220 </r>
       <r>    32.4213     1.4991    22.3504 </r>
       <r>    32.6195     0.8453    22.5575 </r>
       <r>    32.8176     0.8477    22.7265 </r>
       <r>    33.0157     0.8171    22.8911 </r>
       <r>    33.2139     0.8229    23.0530 </r>
       <r>    33.4120     0.9894    23.2264 </r>
       <r>    33.6101     0.9781    23.4347 </r>
       <r>    33.8083     0.3912    23.5696 </r>
       <r>    34.0064     0.3373    23.6418 </r>
       <r>    34.2045     0.9942    23.7592 </r>
       <r>    34.4027     0.9151    23.9908 </r>
       <r>    34.6008     0.7265    24.1439 </r>
       <r>    34.7989     0.6367    24.2793 </r>
       <r>    34.9971     0.9596    24.4308 </r>
       <r>    35.1952     1.0658    24.6661 </r>
       <r>    35.3933     1.0685    24.8763 </r>
       <r>    35.5915     1.0593    25.0975 </r>
       <r>    35.7896     1.1587    25.3279 </r>
       <r>    35.9877     0.8240    25.5222 </r>
       <r>    36.1859     0.6552    25.6556 </r>
       <r>    36.3840     0.6833    25.7932 </r>
       <r>    36.5821     0.8255    25.9451 </r>
       <r>    36.7803     1.0512    26.1297 </r>
       <r>    36.9784     1.2323    26.3878 </r>
       <r>    37.1765     1.2153    26.6307 </r>
       <r>    37.3747     0.9969    26.8685 </r>
       <r>    37.5728     1.4185    27.1404 </r>
       <r>    37.7709     0.7469    27.3111 </r>
       <r>    37.9691     0.4833    27.4345 </r>
       <r>    38.1672     0.6245    27.5589 </r>
       <r>    38.3653     0.7711    27.6982 </r>
       <r>    38.5635     0.8345    27.8574 </r>
       <r>    38.7616     1.2189    28.0804 </r>
       <r>    38.9597     1.6229    28.3666 </r>
       <r>    39.1579     1.3962    28.6765 </r>
       <r>    39.3560     1.3935    28.9567 </r>
       <r>    39.5541     1.0541    29.2012 </r>
       <r>    39.7523     0.6755    29.3694 </r>
       <r>    39.9504     0.7142    29.5057 </r>
       <r>    40.1485     0.6232    29.6387 </r>
       <r>    40.3467     0.5841    29.7589 </r>
       <r>    40.5448     0.5480    29.8922 </r>
       <r>    40.7429     0.7518    30.0454 </r>
       <r>    40.9411     0.8394    30.2034 </r>
       <r>    41.1392     0.9566    30.3813 </r>
       <r>    41.3373     0.8017    30.5558 </r>
       <r>    41.5355     0.6828    30.7007 </r>
       <r>    41.7336     0.6446    30.8320 </r>
       <r>    41.9317     0.5568    30.9612 </r>
       <r>    42.1299     0.9168    31.0992 </r>
       <r>    42.3280     0.9631    31.2875 </r>
       <r>    42.5261     0.9359    31.4762 </r>
       <r>    42.7243     1.0166    31.6881 </r>
       <r>    42.9224     1.0148    31.8848 </r>
       <r>    43.1205     0.7195    32.1004 </r>
       <r>    43.3187     0.8799    32.2589 </r>
       <r>    43.5168     0.7351    32.4400 </r>
       <r>    43.7149     0.8353    32.5971 </r>
       <r>    43.9131     0.8145    32.7758 </r>
       <r>    44.1112     0.8344    32.9393 </r>
       <r>    44.3093     0.8458    33.1059 </r>
       <r>    44.5075     0.9805    33.2817 </r>
       <r>    44.7056     0.8693    33.4740 </r>
       <r>    44.9037     1.0736    33.6788 </r>
       <r>    45.1019     1.2790    33.9595 </r>
       <r>    45.3000     1.0284    34.1707 </r>
       <r>    45.4981     0.6587    34.3847 </r>
       <r>    45.6963     0.8525    34.5369 </r>
       <r>    45.8944     0.7454    34.6954 </r>
       <r>    46.0925     0.2368    34.8950 </r>
       <r>    46.2907     0.7413    34.9943 </r>
       <r>    46.4888     1.0518    35.1883 </r>
       <r>    46.6869     1.1044    35.3939 </r>
       <r>    46.8851     1.2407    35.6373 </r>
       <r>    47.0832     1.1258    35.8773 </r>
       <r>    47.2813     0.0721    35.9515 </r>
       <r>    47.4795     0.0596    35.9646 </r>
       <r>    47.6776     0.0484    35.9753 </r>
       <r>    47.8757     0.0385    35.9838 </r>
       <r>    48.0739     0.0299    35.9906 </r>
       <r>    48.2720     0.0000    36.0000 </r>
       <r>    48.4702     0.0000    36.0000 </r>
       <r>    48.6683     0.0000    36.0000 </r>
       <r>    48.8664     0.0000    36.0000 </r>
       <r>    49.0646     0.0000    36.0000 </r>
       <r>    49.2627     0.0000    36.0000 </r>
       <r>    49.4608     0.0000    36.0000 </r>
       <r>    49.6590     0.0000    36.0000 </r>
       <r>    49.8571     0.0000    36.0000 </r>
       <r>    50.0552     0.0000    36.0000 </r>
       <r>    50.2534     0.0000    36.0000 </r>
       <r>    50.4515     0.0000    36.0000 </r>
       <r>    50.6496     0.0000    36.0000 </r>
       <r>    50.8478     0.0000    36.0000 </r>
      </set>
      <set comment="spin 2">
       <r>    -8.5923     0.0000     0.0000 </r>
       <r>    -8.3942     0.0000     0.0000 </r>
       <r>    -8.1961     0.0000     0.0000 </r>
       <r>    -7.9979     0.0000     0.0000 </r>
       <r>    -7.7998     0.0000     0.0000 </r>
       <r>    -7.6017     0.0000     0.0000 </r>
       <r>    -7.4035     0.0000     0.0000 </r>
       <r>    -7.2054     0.0000     0.0000 </r>
       <r>    -7.0073     0.0000     0.0000 </r>
       <r>    -6.8091     0.0000     0.0000 </r>
       <r>    -6.6110     0.0000     0.0000 </r>
       <r>    -6.4129     0.0000     0.0000 </r>
       <r>    -6.2147     0.0000     0.0000 </r>
       <r>    -6.0166     0.0000     0.0000 </r>
       <r>    -5.8185     0.0554     0.0075 </r>
       <r>    -5.6203     0.0943     0.0221 </r>
       <r>    -5.4222     0.1413     0.0453 </r>
       <r>    -5.2241     0.1568     0.0751 </r>
       <r>    -5.0259     0.1774     0.1083 </r>
       <r>    -4.8278     0.1949     0.1452 </r>
       <r>    -4.6297     0.2236     0.1865 </r>
       <r>    -4.4315     0.2604     0.2343 </r>
       <r>    -4.2334     0.3015     0.2903 </r>
       <r>    -4.0353     0.3384     0.3538 </r>
       <r>    -3.8371     0.3962     0.4242 </r>
       <r>    -3.6390     0.4139     0.5235 </r>
       <r>    -3.4409     0.4001     0.6044 </r>
       <r>    -3.2427     0.3706     0.6811 </r>
       <r>    -3.0446     0.3712     0.7525 </r>
       <r>    -2.8465     0.3911     0.8286 </r>
       <r>    -2.6483     0.5809     0.9449 </r>
       <r>    -2.4502     0.0000     1.0000 </r>
       <r>    -2.2521     0.0000     1.0000 </r>
       <r>    -2.0539     0.0000     1.0000 </r>
       <r>    -1.8558     0.0000     1.0000 </r>
       <r>    -1.6577     0.0000     1.0000 </r>
       <r>    -1.4595     0.0000     1.0000 </r>
       <r>    -1.2614     0.0000     1.0000 </r>
       <r>    -1.0633     0.0000     1.0000 </r>
       <r>    -0.8651     0.7362     1.1836 </r>
       <r>    -0.6670     0.5145     1.3113 </r>
       <r>    -0.4689     0.4554     1.4075 </r>
       <r>    -0.2707     0.3881     1.4912 </r>
       <r>    -0.0726     0.3126     1.5608 </r>
       <r>     0.1255     0.2414     1.6150 </r>
       <r>     0.3237     0.2177     1.6605 </r>
       <r>     0.5218     0.1957     1.7014 </r>
       <r>     0.7199     0.1754     1.7382 </r>
       <r>     0.9181     0.1569     1.7711 </r>
       <r>     1.1162     0.1363     1.8003 </r>
       <r>     1.3143     0.1163     1.8252 </r>
       <r>     1.5125     0.1065     1.8472 </r>
       <r>     1.7106     0.0970     1.8674 </r>
       <r>     1.9087     0.5608     1.9735 </r>
       <r>     2.1069     0.5758     2.0865 </r>
       <r>     2.3050     0.5660     2.2000 </r>
       <r>     2.5031     0.4870     2.3192 </r>
       <r>     2.7013     0.4365     2.4100 </r>
       <r>     2.8994     0.4042     2.4932 </r>
       <r>     3.0975     0.8180     2.6549 </r>
       <r>     3.2957     0.7491     2.8276 </r>
       <r>     3.4938     0.7560     2.9770 </r>
       <r>     3.6919     0.7423     3.1299 </r>
       <r>     3.8901     0.6810     3.2687 </r>
       <r>     4.0882     0.7518     3.4224 </r>
       <r>     4.2863     0.6472     3.5609 </r>
       <r>     4.4845     0.5122     3.6827 </r>
       <r>     4.6826     0.4141     3.7742 </r>
       <r>     4.8807     0.3980     3.8622 </r>
       <r>     5.0789     0.2477     3.9277 </r>
       <r>     5.2770     0.1281     3.9613 </r>
       <r>     5.4751     0.0796     3.9816 </r>
       <r>     5.6733     0.0000     4.0000 </r>
       <r>     5.8714     0.0000     4.0000 </r>
       <r>     6.0695     0.0000     4.0000 </r>
       <r>     6.2677     0.0000     4.0000 </r>
       <r>     6.4658     0.0000     4.0000 </r>
       <r>     6.6639     0.0000     4.0000 </r>
       <r>     6.8621     0.0905     4.0160 </r>
       <r>     7.0602     0.1306     4.0378 </r>
       <r>     7.2583     0.1782     4.0683 </r>
       <r>     7.4565     0.2083     4.1047 </r>
       <r>     7.6546     0.2747     4.1522 </r>
       <r>     7.8527     0.4836     4.2223 </r>
       <r>     8.0509     0.8527     4.3691 </r>
       <r>     8.2490     1.2128     4.5905 </r>
       <r>     8.4471     1.0224     4.8396 </r>
       <r>     8.6453     0.6528     5.0057 </r>
       <r>     8.8434     0.1476     5.0969 </r>
       <r>     9.0416     0.2950     5.1474 </r>
       <r>     9.2397     0.4591     5.2213 </r>
       <r>     9.4378     1.0626     5.3410 </r>
       <r>     9.6360     1.2620     5.6314 </r>
       <r>     9.8341     0.5807     5.7709 </r>
       <r>    10.0322     0.6525     5.8945 </r>
       <r>    10.2304     0.6143     6.0503 </r>
       <r>    10.4285     0.5261     6.1688 </r>
       <r>    10.6266     0.4893     6.2693 </r>
       <r>    10.8248     0.5388     6.4114 </r>
       <r>    11.0229     0.6366     6.5197 </r>
       <r>    11.2210     0.9014     6.6742 </r>
       <r>    11.4192     0.4189     6.8589 </r>
       <r>    11.6173     0.3175     6.9250 </r>
       <r>    11.8154     0.2993     6.9859 </r>
       <r>    12.0136     0.4792     7.0598 </r>
       <r>    12.2117     0.5964     7.1681 </r>
       <r>    12.4098     0.4627     7.2646 </r>
       <r>    12.6080     0.5215     7.3623 </r>
       <r>    12.8061     0.5693     7.4705 </r>
       <r>    13.0042     0.6273     7.5879 </r>
       <r>    13.2024     0.8139     7.7319 </r>
       <r>    13.4005     0.8025     7.9041 </r>
       <r>    13.5986     0.4393     8.0432 </r>
       <r>    13.7968     0.3807     8.1239 </r>
       <r>    13.9949     0.4118     8.1984 </r>
       <r>    14.1930     0.5669     8.2959 </r>
       <r>    14.3912     0.6374     8.4689 </r>
       <r>    14.5893     0.7193     8.6033 </r>
       <r>    14.7874     0.8046     8.7579 </r>
       <r>    14.9856     0.8608     8.9315 </r>
       <r>    15.1837     0.5421     9.0400 </r>
       <r>    15.3818     0.5715     9.1501 </r>
       <r>    15.5800     0.6087     9.2669 </r>
       <r>    15.7781     0.8469     9.4027 </r>
       <r>    15.9762     0.7594     9.5549 </r>
       <r>    16.1744     0.6415     9.7125 </r>
       <r>    16.3725     0.6287     9.8389 </r>
       <r>    16.5706     0.5456     9.9582 </r>
       <r>    16.7688     0.5358    10.0692 </r>
       <r>    16.9669     0.5605    10.2063 </r>
       <r>    17.1650     0.2521    10.3139 </r>
       <r>    17.3632     0.2798    10.3666 </r>
       <r>    17.5613     0.3511    10.4291 </r>
       <r>    17.7594     0.5388    10.5167 </r>
       <r>    17.9576     0.7906    10.6477 </r>
       <r>    18.1557     1.1403    10.8417 </r>
       <r>    18.3538     0.8245    11.1526 </r>
       <r>    18.5520     0.4090    11.2833 </r>
       <r>    18.7501     0.4930    11.3754 </r>
       <r>    18.9482     0.5796    11.4817 </r>
       <r>    19.1464     0.7848    11.6590 </r>
       <r>    19.3445     0.6644    11.7953 </r>
       <r>    19.5426     0.7065    11.9310 </r>
       <r>    19.7408     0.7523    12.0755 </r>
       <r>    19.9389     0.8009    12.2283 </r>
       <r>    20.1370     0.7305    12.3834 </r>
       <r>    20.3352     0.6094    12.5152 </r>
       <r>    20.5333     0.7021    12.6741 </r>
       <r>    20.7314     0.7178    12.8146 </r>
       <r>    20.9296     1.0034    12.9735 </r>
       <r>    21.1277     1.5054    13.2436 </r>
       <r>    21.3258     1.2664    13.5185 </r>
       <r>    21.5240     0.5255    13.7019 </r>
       <r>    21.7221     0.4727    13.8010 </r>
       <r>    21.9202     0.9135    13.8979 </r>
       <r>    22.1184     0.1680    14.0613 </r>
       <r>    22.3165     0.2379    14.1014 </r>
       <r>    22.5146     0.4232    14.1619 </r>
       <r>    22.7128     0.6140    14.2699 </r>
[...]
        <r>  0.0104  0.0094  0.0078  0.0281  0.0000  0.0000  0.0000  0.0000  0.0000 </r>
       </set>
       <set comment="band 24">
        <r>  0.0057  0.0002  0.0007  0.0005  0.0000  0.0000  0.0000  0.0000  0.0000 </r>
        <r>  0.0057  0.0002  0.0007  0.0005  0.0000  0.0000  0.0000  0.0000  0.0000 </r>
       </set>
       <set comment="band 25">
        <r>  0.0000  0.0745  0.0000  0.0248  0.0000  0.0000  0.0000  0.0000  0.0000 </r>
        <r>  0.0000  0.0745  0.0000  0.0248  0.0000  0.0000  0.0000  0.0000  0.0000 </r>
       </set>
       <set comment="band 26">
        <r>  0.0077  0.0047  0.0233  0.0142  0.0000  0.0000  0.0000  0.0000  0.0000 </r>
        <r>  0.0077  0.0047  0.0233  0.0142  0.0000  0.0000  0.0000  0.0000  0.0000 </r>
       </set>
       <set comment="band 27">
        <r>  0.0095  0.0004  0.0329  0.0013  0.0000  0.0000  0.0000  0.0000  0.0000 </r>
        <r>  0.0095  0.0004  0.0329  0.0013  0.0000  0.0000  0.0000  0.0000  0.0000 </r>
       </set>
       <set comment="band 28">
        <r>  0.0234  0.0022  0.0046  0.0067  0.0000  0.0000  0.0000  0.0000  0.0000 </r>
        <r>  0.0234  0.0022  0.0046  0.0067  0.0000  0.0000  0.0000  0.0000  0.0000 </r>
       </set>
       <set comment="band 29">
        <r>  0.0000  0.0035  0.0000  0.0012  0.0000  0.0000  0.0000  0.0000  0.0000 </r>
        <r>  0.0000  0.0035  0.0000  0.0012  0.0000  0.0000  0.0000  0.0000  0.0000 </r>
       </set>
       <set comment="band 30">
        <r>  0.0000  0.0556  0.0000  0.0185  0.0000  0.0000  0.0000  0.0000  0.0000 </r>
        <r>  0.0000  0.0556  0.0000  0.0185  0.0000  0.0000  0.0000  0.0000  0.0000 </r>
       </set>
       <set comment="band 31">
        <r>  0.0000  0.0037  0.0000  0.0012  0.0000  0.0000  0.0000  0.0000  0.0000 </r>
        <r>  0.0000  0.0037  0.0000  0.0012  0.0000  0.0000  0.0000  0.0000  0.0000 </r>
       </set>
       <set comment="band 32">
        <r>  0.0280  0.0010  0.0088  0.0031  0.0000  0.0000  0.0000  0.0000  0.0000 </r>
        <r>  0.0280  0.0010  0.0088  0.0031  0.0000  0.0000  0.0000  0.0000  0.0000 </r>
       </set>
       <set comment="band 33">
        <r>  0.0008  0.0032  0.0257  0.0097  0.0000  0.0000  0.0000  0.0000  0.0000 </r>
        <r>  0.0008  0.0032  0.0257  0.0097  0.0000  0.0000  0.0000  0.0000  0.0000 </r>
       </set>
       <set comment="band 34">
        <r>  0.0012  0.0012  0.0074  0.0036  0.0000  0.0000  0.0000  0.0000  0.0000 </r>
        <r>  0.0012  0.0012  0.0074  0.0036  0.0000  0.0000  0.0000  0.0000  0.0000 </r>
       </set>
       <set comment="band 35">
        <r>  0.0197  0.0023  0.0069  0.0069  0.0000  0.0000  0.0000  0.0000  0.0000 </r>
        <r>  0.0199  0.0023  0.0069  0.0070  0.0000  0.0000  0.0000  0.0000  0.0000 </r>
       </set>
       <set comment="band 36">
        <r>  0.0000  0.0081  0.0000  0.0028  0.0000  0.0000  0.0000  0.0000  0.0000 </r>
        <r>  0.0000  0.0080  0.0000  0.0029  0.0000  0.0000  0.0000  0.0000  0.0000 </r>
       </set>
      </set>
      <set comment="kpoint 9">
       <set comment="band 1">
        <r>  0.2134  0.0032  0.0016  0.0097  0.0000  0.0000  0.0000  0.0000  0.0000 </r>
        <r>  0.2134  0.0032  0.0016  0.0097  0.0000  0.0000  0.0000  0.0000  0.0000 </r>
       </set>
       <set comment="band 2">
        <r>  0.1054  0.0221  0.0111  0.0664  0.0000  0.0000  0.0000  0.0000  0.0000 </r>
        <r>  0.1054  0.0221  0.0111  0.0664  0.0000  0.0000  0.0000  0.0000  0.0000 </r>
       </set>
       <set comment="band 3">
        <r>  0.0000  0.0583  0.1594  0.0006  0.0000  0.0000  0.0000  0.0000  0.0000 </r>
        <r>  0.0000  0.0583  0.1594  0.0006  0.0000  0.0000  0.0000  0.0000  0.0000 </r>
       </set>
       <set comment="band 4">
        <r>  0.0000  0.1114  0.0346  0.0722  0.0000  0.0000  0.0000  0.0000  0.0000 </r>
        <r>  0.0000  0.1114  0.0346  0.0722  0.0000  0.0000  0.0000  0.0000  0.0000 </r>
       </set>
       <set comment="band 5">
        <r>  0.1787  0.0057  0.0028  0.0170  0.0000  0.0000  0.0000  0.0000  0.0000 </r>
        <r>  0.1787  0.0057  0.0028  0.0170  0.0000  0.0000  0.0000  0.0000  0.0000 </r>
       </set>
       <set comment="band 6">
        <r>  0.0000  0.0535  0.0167  0.0347  0.0000  0.0000  0.0000  0.0000  0.0000 </r>
        <r>  0.0000  0.0535  0.0167  0.0347  0.0000  0.0000  0.0000  0.0000  0.0000 </r>
       </set>
       <set comment="band 7">
        <r>  0.0000  0.0280  0.0766  0.0003  0.0000  0.0000  0.0000  0.0000  0.0000 </r>
        <r>  0.0000  0.0280  0.0766  0.0003  0.0000  0.0000  0.0000  0.0000  0.0000 </r>
       </set>
       <set comment="band 8">
        <r>  0.0039  0.0177  0.0088  0.0531  0.0000  0.0000  0.0000  0.0000  0.0000 </r>
        <r>  0.0039  0.0177  0.0088  0.0531  0.0000  0.0000  0.0000  0.0000  0.0000 </r>
       </set>
       <set comment="band 9">
        <r>  0.0000  0.0109  0.0299  0.0001  0.0000  0.0000  0.0000  0.0000  0.0000 </r>
        <r>  0.0000  0.0109  0.0299  0.0001  0.0000  0.0000  0.0000  0.0000  0.0000 </r>
       </set>
       <set comment="band 10">
        <r>  0.0000  0.0209  0.0065  0.0135  0.0000  0.0000  0.0000  0.0000  0.0000 </r>
        <r>  0.0000  0.0209  0.0065  0.0135  0.0000  0.0000  0.0000  0.0000  0.0000 </r>
       </set>
       <set comment="band 11">
        <r>  0.1035  0.0242  0.0121  0.0725  0.0000  0.0000  0.0000  0.0000  0.0000 </r>
        <r>  0.1035  0.0242  0.0121  0.0725  0.0000  0.0000  0.0000  0.0000  0.0000 </r>
       </set>
       <set comment="band 12">
        <r>  0.0000  0.0171  0.0469  0.0002  0.0000  0.0000  0.0000  0.0000  0.0000 </r>
        <r>  0.0000  0.0171  0.0469  0.0002  0.0000  0.0000  0.0000  0.0000  0.0000 </r>
       </set>
       <set comment="band 13">
        <r>  0.0000  0.0328  0.0102  0.0212  0.0000  0.0000  0.0000  0.0000  0.0000 </r>
        <r>  0.0000  0.0328  0.0102  0.0212  0.0000  0.0000  0.0000  0.0000  0.0000 </r>
       </set>
       <set comment="band 14">
        <r>  0.0161  0.0496  0.0248  0.1489  0.0000  0.0000  0.0000  0.0000  0.0000 </r>
        <r>  0.0161  0.0496  0.0248  0.1489  0.0000  0.0000  0.0000  0.0000  0.0000 </r>
       </set>
       <set comment="band 15">
        <r>  0.0687  0.0020  0.0010  0.0061  0.0000  0.0000  0.0000  0.0000  0.0000 </r>
        <r>  0.0687  0.0020  0.0010  0.0061  0.0000  0.0000  0.0000  0.0000  0.0000 </r>
       </set>
       <set comment="band 16">
        <r>  0.0000  0.0138  0.0043  0.0089  0.0000  0.0000  0.0000  0.0000  0.0000 </r>
        <r>  0.0000  0.0138  0.0043  0.0089  0.0000  0.0000  0.0000  0.0000  0.0000 </r>
       </set>
       <set comment="band 17">
        <r>  0.0000  0.0072  0.0197  0.0001  0.0000  0.0000  0.0000  0.0000  0.0000 </r>
        <r>  0.0000  0.0072  0.0197  0.0001  0.0000  0.0000  0.0000  0.0000  0.0000 </r>
       </set>
       <set comment="band 18">
        <r>  0.0066  0.0090  0.0045  0.0271  0.0000  0.0000  0.0000  0.0000  0.0000 </r>
        <r>  0.0066  0.0090  0.0045  0.0271  0.0000  0.0000  0.0000  0.0000  0.0000 </r>
       </set>
       <set comment="band 19">
        <r>  0.0000  0.0062  0.0019  0.0040  0.0000  0.0000  0.0000  0.0000  0.0000 </r>
        <r>  0.0000  0.0062  0.0019  0.0040  0.0000  0.0000  0.0000  0.0000  0.0000 </r>
       </set>
       <set comment="band 20">
        <r>  0.0000  0.0032  0.0088  0.0000  0.0000  0.0000  0.0000  0.0000  0.0000 </r>
        <r>  0.0000  0.0032  0.0088  0.0000  0.0000  0.0000  0.0000  0.0000  0.0000 </r>
       </set>
       <set comment="band 21">
        <r>  0.0173  0.0084  0.0042  0.0251  0.0000  0.0000  0.0000  0.0000  0.0000 </r>
        <r>  0.0173  0.0084  0.0042  0.0251  0.0000  0.0000  0.0000  0.0000  0.0000 </r>
       </set>
       <set comment="band 22">
        <r>  0.0000  0.0534  0.0169  0.0347  0.0000  0.0000  0.0000  0.0000  0.0000 </r>
        <r>  0.0000  0.0534  0.0169  0.0347  0.0000  0.0000  0.0000  0.0000  0.0000 </r>
       </set>
       <set comment="band 23">
        <r>  0.0000  0.0283  0.0765  0.0003  0.0000  0.0000  0.0000  0.0000  0.0000 </r>
        <r>  0.0000  0.0283  0.0765  0.0003  0.0000  0.0000  0.0000  0.0000  0.0000 </r>
       </set>
       <set comment="band 24">
        <r>  0.0000  0.0332  0.0103  0.0215  0.0000  0.0000  0.0000  0.0000  0.0000 </r>
        <r>  0.0000  0.0332  0.0103  0.0215  0.0000  0.0000  0.0000  0.0000  0.0000 </r>
       </set>
       <set comment="band 25">
        <r>  0.0000  0.0174  0.0475  0.0002  0.0000  0.0000  0.0000  0.0000  0.0000 </r>
        <r>  0.0000  0.0174  0.0475  0.0002  0.0000  0.0000  0.0000  0.0000  0.0000 </r>
       </set>
       <set comment="band 26">
        <r>  0.0381  0.0005  0.0002  0.0014  0.0000  0.0000  0.0000  0.0000  0.0000 </r>
        <r>  0.0381  0.0005  0.0002  0.0014  0.0000  0.0000  0.0000  0.0000  0.0000 </r>
       </set>
       <set comment="band 27">
        <r>  0.0000  0.0000  0.0000  0.0000  0.0000  0.0000  0.0000  0.0000  0.0000 </r>
        <r>  0.0000  0.0000  0.0000  0.0000  0.0000  0.0000  0.0000  0.0000  0.0000 </r>
       </set>
       <set comment="band 28">
        <r>  0.0000  0.0111  0.0310  0.0001  0.0000  0.0000  0.0000  0.0000  0.0000 </r>
        <r>  0.0000  0.0111  0.0310  0.0001  0.0000  0.0000  0.0000  0.0000  0.0000 </r>
       </set>
       <set comment="band 29">
        <r>  0.0000  0.0218  0.0065  0.0140  0.0000  0.0000  0.0000  0.0000  0.0000 </r>
        <r>  0.0000  0.0218  0.0065  0.0140  0.0000  0.0000  0.0000  0.0000  0.0000 </r>
       </set>
       <set comment="band 30">
        <r>  0.0000  0.0095  0.0268  0.0001  0.0000  0.0000  0.0000  0.0000  0.0000 </r>
        <r>  0.0000  0.0095  0.0268  0.0001  0.0000  0.0000  0.0000  0.0000  0.0000 </r>
       </set>
       <set comment="band 31">
        <r>  0.0000  0.0188  0.0055  0.0120  0.0000  0.0000  0.0000  0.0000  0.0000 </r>
        <r>  0.0000  0.0188  0.0055  0.0120  0.0000  0.0000  0.0000  0.0000  0.0000 </r>
       </set>
       <set comment="band 32">
        <r>  0.0319  0.0043  0.0021  0.0129  0.0000  0.0000  0.0000  0.0000  0.0000 </r>
        <r>  0.0319  0.0043  0.0021  0.0129  0.0000  0.0000  0.0000  0.0000  0.0000 </r>
       </set>
       <set comment="band 33">
        <r>  0.0000  0.0000  0.0000  0.0000  0.0000  0.0000  0.0000  0.0000  0.0000 </r>
        <r>  0.0000  0.0000  0.0000  0.0000  0.0000  0.0000  0.0000  0.0000  0.0000 </r>
       </set>
       <set comment="band 34">
        <r>  0.0271  0.0083  0.0041  0.0249  0.0000  0.0000  0.0000  0.0000  0.0000 </r>
        <r>  0.0271  0.0083  0.0041  0.0249  0.0000  0.0000  0.0000  0.0000  0.0000 </r>
       </set>
       <set comment="band 35">
        <r>  0.0000  0.0027  0.0019  0.0002  0.0000  0.0000  0.0000  0.0000  0.0000 </r>
        <r>  0.0000  0.0027  0.0019  0.0002  0.0000  0.0000  0.0000  0.0000  0.0000 </r>
       </set>
       <set comment="band 36">
        <r>  0.0000  0.0010  0.0023  0.0014  0.0000  0.0000  0.0000  0.0000  0.0000 </r>
        <r>  0.0000  0.0010  0.0023  0.0014  0.0000  0.0000  0.0000  0.0000  0.0000 </r>
       </set>
      </set>
      <set comment="kpoint 10">
       <set comment="band 1">
        <r>  0.2167  0.0059  0.0029  0.0154  0.0000  0.0000  0.0000  0.0000  0.0000 </r>
        <r>  0.2167  0.0059  0.0029  0.0154  0.0000  0.0000  0.0000  0.0000  0.0000 </r>
       </set>
       <set comment="band 2">
        <r>  0.1486  0.0263  0.0131  0.0371  0.0000  0.0000  0.0000  0.0000  0.0000 </r>
        <r>  0.1486  0.0263  0.0131  0.0371  0.0000  0.0000  0.0000  0.0000  0.0000 </r>
       </set>
       <set comment="band 3">
        <r>  0.0240  0.0480  0.0240  0.0771  0.0000  0.0000  0.0000  0.0000  0.0000 </r>
        <r>  0.0240  0.0480  0.0240  0.0771  0.0000  0.0000  0.0000  0.0000  0.0000 </r>
       </set>
       <set comment="band 4">
        <r>  0.0000  0.0690  0.1380  0.0000  0.0000  0.0000  0.0000  0.0000  0.0000 </r>
        <r>  0.0000  0.0690  0.1380  0.0000  0.0000  0.0000  0.0000  0.0000  0.0000 </r>
       </set>
       <set comment="band 5">
        <r>  0.0559  0.0311  0.0156  0.0034  0.0000  0.0000  0.0000  0.0000  0.0000 </r>
        <r>  0.0559  0.0311  0.0156  0.0034  0.0000  0.0000  0.0000  0.0000  0.0000 </r>
       </set>
       <set comment="band 6">
        <r>  0.0438  0.0352  0.0176  0.0441  0.0000  0.0000  0.0000  0.0000  0.0000 </r>
        <r>  0.0438  0.0352  0.0176  0.0441  0.0000  0.0000  0.0000  0.0000  0.0000 </r>
       </set>
       <set comment="band 7">
        <r>  0.0000  0.0396  0.0792  0.0000  0.0000  0.0000  0.0000  0.0000  0.0000 </r>
        <r>  0.0000  0.0396  0.0792  0.0000  0.0000  0.0000  0.0000  0.0000  0.0000 </r>
       </set>
       <set comment="band 8">
        <r>  0.0276  0.0158  0.0079  0.0903  0.0000  0.0000  0.0000  0.0000  0.0000 </r>
        <r>  0.0276  0.0158  0.0079  0.0903  0.0000  0.0000  0.0000  0.0000  0.0000 </r>
       </set>
       <set comment="band 9">
        <r>  0.0000  0.0142  0.0283  0.0000  0.0000  0.0000  0.0000  0.0000  0.0000 </r>
        <r>  0.0000  0.0142  0.0283  0.0000  0.0000  0.0000  0.0000  0.0000  0.0000 </r>
       </set>
       <set comment="band 10">
        <r>  0.0396  0.0589  0.0295  0.0642  0.0000  0.0000  0.0000  0.0000  0.0000 </r>
        <r>  0.0396  0.0589  0.0295  0.0642  0.0000  0.0000  0.0000  0.0000  0.0000 </r>
       </set>
       <set comment="band 11">
        <r>  0.0292  0.0012  0.0006  0.0098  0.0000  0.0000  0.0000  0.0000  0.0000 </r>
        <r>  0.0292  0.0012  0.0006  0.0098  0.0000  0.0000  0.0000  0.0000  0.0000 </r>
       </set>
       <set comment="band 12">
        <r>  0.0000  0.0153  0.0306  0.0000  0.0000  0.0000  0.0000  0.0000  0.0000 </r>
        <r>  0.0000  0.0153  0.0306  0.0000  0.0000  0.0000  0.0000  0.0000  0.0000 </r>
       </set>
       <set comment="band 13">
        <r>  0.0051  0.0910  0.0455  0.0803  0.0000  0.0000  0.0000  0.0000  0.0000 </r>
        <r>  0.0051  0.0910  0.0455  0.0803  0.0000  0.0000  0.0000  0.0000  0.0000 </r>
       </set>
       <set comment="band 14">
        <r>  0.0074  0.0121  0.0060  0.0928  0.0000  0.0000  0.0000  0.0000  0.0000 </r>
        <r>  0.0074  0.0121  0.0060  0.0928  0.0000  0.0000  0.0000  0.0000  0.0000 </r>
       </set>
       <set comment="band 15">
        <r>  0.0413  0.0093  0.0046  0.0079  0.0000  0.0000  0.0000  0.0000  0.0000 </r>
        <r>  0.0413  0.0093  0.0046  0.0079  0.0000  0.0000  0.0000  0.0000  0.0000 </r>
       </set>
       <set comment="band 16">
        <r>  0.0000  0.0211  0.0422  0.0000  0.0000  0.0000  0.0000  0.0000  0.0000 </r>
        <r>  0.0000  0.0211  0.0422  0.0000  0.0000  0.0000  0.0000  0.0000  0.0000 </r>
       </set>
       <set comment="band 17">
        <r>  0.0167  0.0205  0.0102  0.0476  0.0000  0.0000  0.0000  0.0000  0.0000 </r>
        <r>  0.0167  0.0205  0.0102  0.0476  0.0000  0.0000  0.0000  0.0000  0.0000 </r>
       </set>
       <set comment="band 18">
        <r>  0.0128  0.0414  0.0207  0.0016  0.0000  0.0000  0.0000  0.0000  0.0000 </r>
        <r>  0.0128  0.0414  0.0207  0.0016  0.0000  0.0000  0.0000  0.0000  0.0000 </r>
       </set>
       <set comment="band 19">
        <r>  0.0193  0.0005  0.0002  0.0206  0.0000  0.0000  0.0000  0.0000  0.0000 </r>
        <r>  0.0193  0.0005  0.0002  0.0206  0.0000  0.0000  0.0000  0.0000  0.0000 </r>
       </set>
       <set comment="band 20">
        <r>  0.0000  0.0065  0.0130  0.0000  0.0000  0.0000  0.0000  0.0000  0.0000 </r>
        <r>  0.0000  0.0065  0.0130  0.0000  0.0000  0.0000  0.0000  0.0000  0.0000 </r>
       </set>
       <set comment="band 21">
        <r>  0.0000  0.0049  0.0099  0.0000  0.0000  0.0000  0.0000  0.0000  0.0000 </r>
        <r>  0.0000  0.0049  0.0099  0.0000  0.0000  0.0000  0.0000  0.0000  0.0000 </r>
       </set>
       <set comment="band 22">
        <r>  0.0259  0.0074  0.0037  0.0301  0.0000  0.0000  0.0000  0.0000  0.0000 </r>
        <r>  0.0259  0.0074  0.0037  0.0301  0.0000  0.0000  0.0000  0.0000  0.0000 </r>
       </set>
       <set comment="band 23">
        <r>  0.0000  0.0142  0.0284  0.0000  0.0000  0.0000  0.0000  0.0000  0.0000 </r>
        <r>  0.0000  0.0142  0.0284  0.0000  0.0000  0.0000  0.0000  0.0000  0.0000 </r>
       </set>
       <set comment="band 24">
        <r>  0.0033  0.0012  0.0006  0.0170  0.0000  0.0000  0.0000  0.0000  0.0000 </r>
        <r>  0.0033  0.0012  0.0006  0.0170  0.0000  0.0000  0.0000  0.0000  0.0000 </r>
       </set>
       <set comment="band 25">
        <r>  0.0223  0.0036  0.0018  0.0034  0.0000  0.0000  0.0000  0.0000  0.0000 </r>
        <r>  0.0223  0.0036  0.0018  0.0034  0.0000  0.0000  0.0000  0.0000  0.0000 </r>
       </set>
       <set comment="band 26">
        <r>  0.0238  0.0128  0.0064  0.0018  0.0000  0.0000  0.0000  0.0000  0.0000 </r>
        <r>  0.0238  0.0128  0.0064  0.0018  0.0000  0.0000  0.0000  0.0000  0.0000 </r>
       </set>
       <set comment="band 27">
        <r>  0.0000  0.0358  0.0717  0.0000  0.0000  0.0000  0.0000  0.0000  0.0000 </r>
        <r>  0.0000  0.0358  0.0717  0.0000  0.0000  0.0000  0.0000  0.0000  0.0000 </r>
       </set>
       <set comment="band 28">
        <r>  0.0115  0.0055  0.0027  0.0136  0.0000  0.0000  0.0000  0.0000  0.0000 </r>
        <r>  0.0115  0.0055  0.0027  0.0136  0.0000  0.0000  0.0000  0.0000  0.0000 </r>
       </set>
       <set comment="band 29">
        <r>  0.0074  0.0015  0.0008  0.0102  0.0000  0.0000  0.0000  0.0000  0.0000 </r>
        <r>  0.0074  0.0015  0.0008  0.0102  0.0000  0.0000  0.0000  0.0000  0.0000 </r>
       </set>
       <set comment="band 30">
        <r>  0.0000  0.0065  0.0130  0.0000  0.0000  0.0000  0.0000  0.0000  0.0000 </r>
        <r>  0.0000  0.0065  0.0130  0.0000  0.0000  0.0000  0.0000  0.0000  0.0000 </r>
       </set>
       <set comment="band 31">
        <r>  0.0000  0.0187  0.0373  0.0000  0.0000  0.0000  0.0000  0.0000  0.0000 </r>
        <r>  0.0000  0.0187  0.0373  0.0000  0.0000  0.0000  0.0000  0.0000  0.0000 </r>
       </set>
       <set comment="band 32">
        <r>  0.0329  0.0088  0.0044  0.0003  0.0000  0.0000  0.0000  0.0000  0.0000 </r>
        <r>  0.0329  0.0088  0.0044  0.0003  0.0000  0.0000  0.0000  0.0000  0.0000 </r>
       </set>
       <set comment="band 33">
        <r>  0.0111  0.0097  0.0048  0.0089  0.0000  0.0000  0.0000  0.0000  0.0000 </r>
        <r>  0.0111  0.0097  0.0048  0.0089  0.0000  0.0000  0.0000  0.0000  0.0000 </r>
       </set>
       <set comment="band 34">
        <r>  0.0000  0.0004  0.0009  0.0000  0.0000  0.0000  0.0000  0.0000  0.0000 </r>
        <r>  0.0000  0.0004  0.0009  0.0000  0.0000  0.0000  0.0000  0.0000  0.0000 </r>
       </set>
       <set comment="band 35">
        <r>  0.0138  0.0108  0.0054  0.0051  0.0000  0.0000  0.0000  0.0000  0.0000 </r>
        <r>  0.0138  0.0108  0.0054  0.0051  0.0000  0.0000  0.0000  0.0000  0.0000 </r>
       </set>
       <set comment="band 36">
        <r>  0.0012  0.0145  0.0073  0.0081  0.0000  0.0000  0.0000  0.0000  0.0000 </r>
        <r>  0.0012  0.0145  0.0073  0.0081  0.0000  0.0000  0.0000  0.0000  0.0000 </r>
       </set>
      </set>
     </set>
    </set>
   </array>
  </projected>
 </calculation>
 <structure name="finalpos" >
  <crystal>
   <varray name="basis" >
    <v>       3.82643698       0.00000000       0.00000000 </v>
    <v>       1.91321849       3.31379163      -0.00000000 </v>
    <v>       1.91321849       1.10459721       3.12427271 </v>
   </varray>
   <i name="volume">     39.61582434 </i>
   <varray name="rec_basis" >
    <v>       0.26133973      -0.15088456      -0.10669150 </v>
    <v>       0.00000000       0.30176912      -0.10669150 </v>
    <v>       0.00000000       0.00000000       0.32007449 </v>
   </varray>
  </crystal>
  <varray name="positions" >
   <v>       0.74999998       0.74999998       0.75000000 </v>
   <v>       0.50000001       0.49999999       0.50000000 </v>
  </varray>
 </structure>
</modeling>
