   2   2   1   0
  0.1980791E+02  0.3826437E-09  0.3826437E-09  0.3826437E-09  0.5000000E-15
  1.000000000000000E-004
  CAR 
 unknown system                          
     51.34677670     -8.83179219  301      6.23792444      1.00000000
     -8.832  0.0000E+00  0.0000E+00  0.0000E+00  0.0000E+00
     -8.631  0.0000E+00  0.0000E+00  0.0000E+00  0.0000E+00
     -8.431  0.0000E+00  0.0000E+00  0.0000E+00  0.0000E+00
     -8.230  0.0000E+00  0.0000E+00  0.0000E+00  0.0000E+00
     -8.029  0.0000E+00  0.0000E+00  0.0000E+00  0.0000E+00
     -7.829  0.0000E+00  0.0000E+00  0.0000E+00  0.0000E+00
     -7.628  0.0000E+00  0.0000E+00  0.0000E+00  0.0000E+00
     -7.428  0.0000E+00  0.0000E+00  0.0000E+00  0.0000E+00
     -7.227  0.0000E+00  0.0000E+00  0.0000E+00  0.0000E+00
     -7.026  0.0000E+00  0.0000E+00  0.0000E+00  0.0000E+00
     -6.826  0.0000E+00  0.0000E+00  0.0000E+00  0.0000E+00
     -6.625  0.0000E+00  0.0000E+00  0.0000E+00  0.0000E+00
     -6.425  0.0000E+00  0.0000E+00  0.0000E+00  0.0000E+00
     -6.224  0.1189E-04  0.1194E-04  0.2385E-05  0.2396E-05
     -6.023  0.2044E+00  0.2045E+00  0.4101E-01  0.4102E-01
     -5.823  0.1890E+00  0.1890E+00  0.7892E-01  0.7893E-01
     -5.622  0.1205E+00  0.1205E+00  0.1031E+00  0.1031E+00
     -5.422  0.9730E-01  0.9729E-01  0.1226E+00  0.1226E+00
     -5.221  0.8426E-01  0.8426E-01  0.1395E+00  0.1395E+00
     -5.020  0.7643E-01  0.7643E-01  0.1548E+00  0.1548E+00
     -4.820  0.7025E-01  0.7025E-01  0.1689E+00  0.1689E+00
     -4.619  0.6338E-01  0.6338E-01  0.1817E+00  0.1817E+00
     -4.419  0.6706E-01  0.6706E-01  0.1951E+00  0.1951E+00
     -4.218  0.5776E-01  0.5776E-01  0.2067E+00  0.2067E+00
     -4.018  0.6612E-01  0.6613E-01  0.2200E+00  0.2200E+00
     -3.817  0.7186E-01  0.7186E-01  0.2344E+00  0.2344E+00
     -3.616  0.4616E+00  0.4616E+00  0.3270E+00  0.3270E+00
     -3.416  0.2771E+00  0.2771E+00  0.3825E+00  0.3826E+00
     -3.215  0.2042E+00  0.2042E+00  0.4235E+00  0.4235E+00
     -3.015  0.1778E+00  0.1778E+00  0.4592E+00  0.4592E+00
     -2.814  0.1601E+00  0.1601E+00  0.4913E+00  0.4913E+00
     -2.613  0.1543E+00  0.1543E+00  0.5223E+00  0.5223E+00
     -2.413  0.1609E+00  0.1609E+00  0.5546E+00  0.5546E+00
     -2.212  0.6230E+00  0.6230E+00  0.6795E+00  0.6795E+00
     -2.012  0.4868E+00  0.4868E+00  0.7772E+00  0.7772E+00
     -1.811  0.1328E+01  0.1328E+01  0.1044E+01  0.1044E+01
     -1.610  0.8246E+00  0.8246E+00  0.1209E+01  0.1209E+01
     -1.410  0.4638E+00  0.4638E+00  0.1302E+01  0.1302E+01
     -1.209  0.7327E+00  0.7327E+00  0.1449E+01  0.1449E+01
     -1.009  0.6557E+00  0.6559E+00  0.1580E+01  0.1581E+01
     -0.808  0.7953E+00  0.7951E+00  0.1740E+01  0.1740E+01
     -0.607  0.5715E-01  0.5715E-01  0.1751E+01  0.1751E+01
     -0.407  0.4209E-01  0.4209E-01  0.1760E+01  0.1760E+01
     -0.206  0.4353E-01  0.4353E-01  0.1769E+01  0.1769E+01
     -0.006  0.4095E-01  0.4095E-01  0.1777E+01  0.1777E+01
      0.195  0.3793E-01  0.3793E-01  0.1784E+01  0.1784E+01
      0.396  0.3834E-01  0.3834E-01  0.1792E+01  0.1792E+01
      0.596  0.3901E-01  0.3901E-01  0.1800E+01  0.1800E+01
      0.797  0.3845E-01  0.3845E-01  0.1808E+01  0.1808E+01
      0.997  0.3691E-01  0.3691E-01  0.1815E+01  0.1815E+01
      1.198  0.3455E-01  0.3455E-01  0.1822E+01  0.1822E+01
      1.399  0.3211E-01  0.3211E-01  0.1828E+01  0.1828E+01
      1.599  0.4463E+00  0.4468E+00  0.1918E+01  0.1918E+01
      1.800  0.8487E+00  0.8484E+00  0.2088E+01  0.2088E+01
      2.000  0.5745E+00  0.5745E+00  0.2204E+01  0.2204E+01
      2.201  0.7282E+00  0.7282E+00  0.2350E+01  0.2350E+01
      2.402  0.4878E+00  0.4878E+00  0.2447E+01  0.2447E+01
      2.602  0.4304E+00  0.4303E+00  0.2534E+01  0.2534E+01
      2.803  0.4158E+00  0.4158E+00  0.2617E+01  0.2617E+01
      3.003  0.4764E+00  0.4765E+00  0.2713E+01  0.2713E+01
      3.204  0.8996E+00  0.8995E+00  0.2893E+01  0.2893E+01
      3.405  0.5277E+00  0.5277E+00  0.2999E+01  0.2999E+01
      3.605  0.5781E+00  0.5780E+00  0.3115E+01  0.3115E+01
      3.806  0.3781E+00  0.3781E+00  0.3191E+01  0.3191E+01
      4.006  0.3356E+00  0.3356E+00  0.3258E+01  0.3258E+01
      4.207  0.3357E+00  0.3357E+00  0.3326E+01  0.3326E+01
      4.407  0.3465E+00  0.3465E+00  0.3395E+01  0.3395E+01
      4.608  0.4040E+00  0.4040E+00  0.3476E+01  0.3476E+01
      4.809  0.7629E+00  0.7629E+00  0.3629E+01  0.3629E+01
      5.009  0.3066E+00  0.3067E+00  0.3691E+01  0.3691E+01
      5.210  0.2418E+00  0.2418E+00  0.3739E+01  0.3739E+01
      5.410  0.2303E+00  0.2303E+00  0.3785E+01  0.3785E+01
      5.611  0.2474E+00  0.2474E+00  0.3835E+01  0.3835E+01
      5.812  0.3121E+00  0.3120E+00  0.3898E+01  0.3898E+01
      6.012  0.5080E+00  0.5080E+00  0.3999E+01  0.3999E+01
      6.213  0.2739E-02  0.2751E-02  0.4000E+01  0.4000E+01
      6.413  0.7456E-03  0.7545E-03  0.4000E+01  0.4000E+01
      6.614  0.2317E+00  0.2323E+00  0.4047E+01  0.4047E+01
      6.815  0.6043E+00  0.6040E+00  0.4168E+01  0.4168E+01
      7.015  0.3203E+00  0.3202E+00  0.4232E+01  0.4232E+01
      7.216  0.4635E+00  0.4637E+00  0.4325E+01  0.4325E+01
      7.416  0.4030E+00  0.4029E+00  0.4406E+01  0.4406E+01
      7.617  0.5802E+00  0.5803E+00  0.4522E+01  0.4522E+01
      7.818  0.4836E+00  0.4835E+00  0.4619E+01  0.4619E+01
      8.018  0.4373E+00  0.4373E+00  0.4707E+01  0.4707E+01
      8.219  0.4975E+00  0.4974E+00  0.4807E+01  0.4807E+01
      8.419  0.2807E+00  0.2806E+00  0.4863E+01  0.4863E+01
      8.620  0.7502E+00  0.7504E+00  0.5014E+01  0.5014E+01
      8.821  0.4582E+00  0.4581E+00  0.5106E+01  0.5106E+01
      9.021  0.4996E+00  0.4997E+00  0.5206E+01  0.5206E+01
      9.222  0.6788E+00  0.6791E+00  0.5342E+01  0.5342E+01
      9.422  0.1227E+01  0.1227E+01  0.5588E+01  0.5588E+01
      9.623  0.7453E+00  0.7449E+00  0.5738E+01  0.5738E+01
      9.824  0.4164E+00  0.4164E+00  0.5821E+01  0.5821E+01
     10.024  0.4276E+00  0.4277E+00  0.5907E+01  0.5907E+01
     10.225  0.1216E+01  0.1216E+01  0.6151E+01  0.6151E+01
     10.425  0.5718E+00  0.5713E+00  0.6266E+01  0.6266E+01
     10.626  0.2428E+00  0.2427E+00  0.6314E+01  0.6314E+01
     10.827  0.1926E+00  0.1926E+00  0.6353E+01  0.6353E+01
     11.027  0.4531E+00  0.4534E+00  0.6444E+01  0.6444E+01
     11.228  0.4819E+00  0.4818E+00  0.6540E+01  0.6541E+01
     11.428  0.4437E+00  0.4437E+00  0.6629E+01  0.6630E+01
     11.629  0.4408E+00  0.4409E+00  0.6718E+01  0.6718E+01
     11.830  0.3877E+00  0.3876E+00  0.6796E+01  0.6796E+01
     12.030  0.3652E+00  0.3653E+00  0.6869E+01  0.6869E+01
     12.231  0.5096E+00  0.5096E+00  0.6971E+01  0.6971E+01
     12.431  0.4382E+00  0.4382E+00  0.7059E+01  0.7059E+01
     12.632  0.4402E+00  0.4401E+00  0.7147E+01  0.7147E+01
     12.832  0.4190E+00  0.4190E+00  0.7231E+01  0.7231E+01
     13.033  0.5432E+00  0.5434E+00  0.7340E+01  0.7340E+01
     13.234  0.5865E+00  0.5864E+00  0.7458E+01  0.7458E+01
     13.434  0.5850E+00  0.5851E+00  0.7575E+01  0.7575E+01
     13.635  0.7157E+00  0.7159E+00  0.7719E+01  0.7719E+01
     13.835  0.9274E+00  0.9273E+00  0.7905E+01  0.7905E+01
     14.036  0.8128E+00  0.8129E+00  0.8068E+01  0.8068E+01
     14.237  0.6053E+00  0.6050E+00  0.8189E+01  0.8189E+01
     14.437  0.7204E+00  0.7204E+00  0.8334E+01  0.8334E+01
     14.638  0.7220E+00  0.7219E+00  0.8479E+01  0.8479E+01
     14.838  0.6822E+00  0.6824E+00  0.8616E+01  0.8616E+01
     15.039  0.9048E+00  0.9046E+00  0.8797E+01  0.8797E+01
     15.240  0.6109E+00  0.6109E+00  0.8920E+01  0.8920E+01
     15.440  0.5421E+00  0.5421E+00  0.9028E+01  0.9028E+01
     15.641  0.5268E+00  0.5269E+00  0.9134E+01  0.9134E+01
     15.841  0.5813E+00  0.5814E+00  0.9251E+01  0.9251E+01
     16.042  0.6826E+00  0.6827E+00  0.9388E+01  0.9388E+01
     16.243  0.7655E+00  0.7653E+00  0.9541E+01  0.9541E+01
     16.443  0.5122E+00  0.5122E+00  0.9644E+01  0.9644E+01
     16.644  0.1376E+01  0.1376E+01  0.9920E+01  0.9920E+01
     16.844  0.7468E+00  0.7467E+00  0.1007E+02  0.1007E+02
     17.045  0.5024E+00  0.5025E+00  0.1017E+02  0.1017E+02
     17.246  0.8389E+00  0.8396E+00  0.1034E+02  0.1034E+02
     17.446  0.1039E+01  0.1038E+01  0.1055E+02  0.1055E+02
     17.647  0.5925E+00  0.5923E+00  0.1067E+02  0.1067E+02
     17.847  0.4970E+00  0.4970E+00  0.1077E+02  0.1077E+02
     18.048  0.4358E+00  0.4357E+00  0.1085E+02  0.1085E+02
     18.249  0.4109E+00  0.4108E+00  0.1094E+02  0.1094E+02
     18.449  0.3732E+00  0.3733E+00  0.1101E+02  0.1101E+02
     18.650  0.6454E+00  0.6455E+00  0.1114E+02  0.1114E+02
     18.850  0.9268E+00  0.9269E+00  0.1133E+02  0.1133E+02
     19.051  0.1072E+01  0.1072E+01  0.1154E+02  0.1154E+02
     19.252  0.1199E+01  0.1198E+01  0.1178E+02  0.1178E+02
     19.452  0.8746E+00  0.8747E+00  0.1196E+02  0.1196E+02
     19.653  0.8117E+00  0.8115E+00  0.1212E+02  0.1212E+02
     19.853  0.7242E+00  0.7243E+00  0.1226E+02  0.1226E+02
     20.054  0.6471E+00  0.6470E+00  0.1239E+02  0.1239E+02
     20.255  0.6463E+00  0.6462E+00  0.1252E+02  0.1252E+02
     20.455  0.5999E+00  0.6000E+00  0.1264E+02  0.1264E+02
     20.656  0.5972E+00  0.5973E+00  0.1276E+02  0.1276E+02
     20.856  0.7304E+00  0.7306E+00  0.1291E+02  0.1291E+02
     21.057  0.6690E+00  0.6689E+00  0.1305E+02  0.1305E+02
     21.257  0.4450E+00  0.4450E+00  0.1313E+02  0.1313E+02
     21.458  0.5795E+00  0.5797E+00  0.1325E+02  0.1325E+02
     21.659  0.6716E+00  0.6715E+00  0.1339E+02  0.1339E+02
     21.859  0.6460E+00  0.6460E+00  0.1351E+02  0.1351E+02
     22.060  0.7721E+00  0.7722E+00  0.1367E+02  0.1367E+02
     22.260  0.6174E+00  0.6174E+00  0.1379E+02  0.1379E+02
     22.461  0.7098E+00  0.7103E+00  0.1394E+02  0.1394E+02
     22.662  0.9398E+00  0.9395E+00  0.1412E+02  0.1412E+02
     22.862  0.8248E+00  0.8245E+00  0.1429E+02  0.1429E+02
     23.063  0.5143E+00  0.5144E+00  0.1439E+02  0.1439E+02
     23.263  0.8052E+00  0.8053E+00  0.1455E+02  0.1455E+02
     23.464  0.7472E+00  0.7471E+00  0.1470E+02  0.1470E+02
     23.665  0.6778E+00  0.6778E+00  0.1484E+02  0.1484E+02
     23.865  0.6375E+00  0.6375E+00  0.1497E+02  0.1497E+02
     24.066  0.6955E+00  0.6955E+00  0.1511E+02  0.1511E+02
     24.266  0.7528E+00  0.7528E+00  0.1526E+02  0.1526E+02
     24.467  0.7159E+00  0.7160E+00  0.1540E+02  0.1540E+02
     24.668  0.8695E+00  0.8695E+00  0.1558E+02  0.1558E+02
     24.868  0.1148E+01  0.1148E+01  0.1581E+02  0.1581E+02
     25.069  0.1271E+01  0.1270E+01  0.1606E+02  0.1606E+02
     25.269  0.7807E+00  0.7808E+00  0.1622E+02  0.1622E+02
     25.470  0.9225E+00  0.9225E+00  0.1640E+02  0.1640E+02
     25.671  0.9164E+00  0.9165E+00  0.1659E+02  0.1659E+02
     25.871  0.1922E+01  0.1922E+01  0.1697E+02  0.1697E+02
     26.072  0.1382E+01  0.1382E+01  0.1725E+02  0.1725E+02
     26.272  0.7889E+00  0.7886E+00  0.1741E+02  0.1741E+02
     26.473  0.8595E+00  0.8593E+00  0.1758E+02  0.1758E+02
     26.674  0.6734E+00  0.6732E+00  0.1772E+02  0.1772E+02
     26.874  0.7228E+00  0.7230E+00  0.1786E+02  0.1786E+02
     27.075  0.1043E+01  0.1043E+01  0.1807E+02  0.1807E+02
     27.275  0.1161E+01  0.1161E+01  0.1830E+02  0.1830E+02
     27.476  0.9738E+00  0.9737E+00  0.1850E+02  0.1850E+02
     27.677  0.1359E+01  0.1360E+01  0.1877E+02  0.1877E+02
     27.877  0.1347E+01  0.1346E+01  0.1904E+02  0.1904E+02
     28.078  0.1278E+01  0.1278E+01  0.1930E+02  0.1930E+02
     28.278  0.9558E+00  0.9554E+00  0.1949E+02  0.1949E+02
     28.479  0.5686E+00  0.5684E+00  0.1960E+02  0.1960E+02
     28.680  0.6297E+00  0.6298E+00  0.1973E+02  0.1973E+02
     28.880  0.6495E+00  0.6495E+00  0.1986E+02  0.1986E+02
     29.081  0.9785E+00  0.9789E+00  0.2006E+02  0.2006E+02
     29.281  0.9896E+00  0.9893E+00  0.2025E+02  0.2025E+02
     29.482  0.7457E+00  0.7457E+00  0.2040E+02  0.2040E+02
     29.682  0.5522E+00  0.5522E+00  0.2052E+02  0.2052E+02
     29.883  0.6450E+00  0.6449E+00  0.2064E+02  0.2064E+02
     30.084  0.9685E+00  0.9688E+00  0.2084E+02  0.2084E+02
     30.284  0.1123E+01  0.1122E+01  0.2106E+02  0.2106E+02
     30.485  0.3814E+00  0.3810E+00  0.2114E+02  0.2114E+02
     30.685  0.2498E+00  0.2498E+00  0.2119E+02  0.2119E+02
     30.886  0.3059E+00  0.3059E+00  0.2125E+02  0.2125E+02
     31.087  0.3422E+00  0.3425E+00  0.2132E+02  0.2132E+02
     31.287  0.1163E+01  0.1163E+01  0.2155E+02  0.2155E+02
     31.488  0.1145E+01  0.1145E+01  0.2178E+02  0.2178E+02
     31.688  0.1017E+01  0.1017E+01  0.2199E+02  0.2199E+02
     31.889  0.7773E+00  0.7775E+00  0.2214E+02  0.2214E+02
     32.090  0.1331E+01  0.1331E+01  0.2241E+02  0.2241E+02
     32.290  0.8872E+00  0.8870E+00  0.2259E+02  0.2259E+02
     32.491  0.1085E+01  0.1086E+01  0.2281E+02  0.2281E+02
     32.691  0.1077E+01  0.1076E+01  0.2302E+02  0.2302E+02
     32.892  0.9703E+00  0.9701E+00  0.2322E+02  0.2322E+02
     33.093  0.6957E+00  0.6957E+00  0.2336E+02  0.2336E+02
     33.293  0.4123E+00  0.4122E+00  0.2344E+02  0.2344E+02
     33.494  0.4342E+00  0.4343E+00  0.2353E+02  0.2353E+02
     33.694  0.7026E+00  0.7027E+00  0.2367E+02  0.2367E+02
     33.895  0.1113E+01  0.1113E+01  0.2389E+02  0.2389E+02
     34.096  0.9278E+00  0.9279E+00  0.2408E+02  0.2408E+02
     34.296  0.5432E+00  0.5429E+00  0.2419E+02  0.2419E+02
     34.497  0.6092E+00  0.6096E+00  0.2431E+02  0.2431E+02
     34.697  0.6120E+00  0.6115E+00  0.2443E+02  0.2443E+02
     34.898  0.4252E+00  0.4254E+00  0.2452E+02  0.2452E+02
     35.099  0.1203E+01  0.1203E+01  0.2476E+02  0.2476E+02
     35.299  0.8871E+00  0.8872E+00  0.2493E+02  0.2493E+02
     35.500  0.1415E+01  0.1415E+01  0.2522E+02  0.2522E+02
     35.700  0.2213E+01  0.2212E+01  0.2566E+02  0.2566E+02
     35.901  0.9609E+00  0.9608E+00  0.2586E+02  0.2586E+02
     36.102  0.7957E+00  0.7957E+00  0.2601E+02  0.2601E+02
     36.302  0.8101E+00  0.8101E+00  0.2618E+02  0.2618E+02
     36.503  0.8294E+00  0.8295E+00  0.2634E+02  0.2634E+02
     36.703  0.7452E+00  0.7450E+00  0.2649E+02  0.2649E+02
     36.904  0.6062E+00  0.6062E+00  0.2661E+02  0.2661E+02
     37.105  0.7376E+00  0.7376E+00  0.2676E+02  0.2676E+02
     37.305  0.9457E+00  0.9460E+00  0.2695E+02  0.2695E+02
     37.506  0.9930E+00  0.9928E+00  0.2715E+02  0.2715E+02
     37.706  0.4840E+00  0.4838E+00  0.2725E+02  0.2725E+02
     37.907  0.3681E+00  0.3682E+00  0.2732E+02  0.2732E+02
     38.107  0.4996E+00  0.4996E+00  0.2742E+02  0.2742E+02
     38.308  0.5458E+00  0.5460E+00  0.2753E+02  0.2753E+02
     38.509  0.7634E+00  0.7636E+00  0.2769E+02  0.2769E+02
     38.709  0.1299E+01  0.1300E+01  0.2795E+02  0.2795E+02
     38.910  0.1267E+01  0.1267E+01  0.2820E+02  0.2820E+02
     39.110  0.7163E+00  0.7162E+00  0.2834E+02  0.2834E+02
     39.311  0.6910E+00  0.6909E+00  0.2848E+02  0.2848E+02
     39.512  0.7038E+00  0.7037E+00  0.2862E+02  0.2862E+02
     39.712  0.5912E+00  0.5913E+00  0.2874E+02  0.2874E+02
     39.913  0.5815E+00  0.5816E+00  0.2886E+02  0.2886E+02
     40.113  0.7496E+00  0.7498E+00  0.2901E+02  0.2901E+02
     40.314  0.8064E+00  0.8063E+00  0.2917E+02  0.2917E+02
     40.515  0.1271E+01  0.1272E+01  0.2943E+02  0.2943E+02
     40.715  0.1215E+01  0.1215E+01  0.2967E+02  0.2967E+02
     40.916  0.1018E+01  0.1018E+01  0.2987E+02  0.2987E+02
     41.116  0.1246E+01  0.1246E+01  0.3012E+02  0.3012E+02
     41.317  0.1011E+01  0.1011E+01  0.3033E+02  0.3033E+02
     41.518  0.9246E+00  0.9248E+00  0.3051E+02  0.3051E+02
     41.718  0.1021E+01  0.1021E+01  0.3072E+02  0.3072E+02
     41.919  0.1066E+01  0.1066E+01  0.3093E+02  0.3093E+02
     42.119  0.9467E+00  0.9464E+00  0.3112E+02  0.3112E+02
     42.320  0.5966E+00  0.5965E+00  0.3124E+02  0.3124E+02
     42.521  0.4894E+00  0.4894E+00  0.3134E+02  0.3134E+02
     42.721  0.5903E+00  0.5904E+00  0.3146E+02  0.3146E+02
     42.922  0.9693E+00  0.9697E+00  0.3165E+02  0.3165E+02
     43.122  0.1339E+01  0.1339E+01  0.3192E+02  0.3192E+02
     43.323  0.1135E+01  0.1135E+01  0.3215E+02  0.3215E+02
     43.524  0.9680E+00  0.9677E+00  0.3234E+02  0.3234E+02
     43.724  0.5216E+00  0.5216E+00  0.3245E+02  0.3245E+02
     43.925  0.7411E+00  0.7415E+00  0.3260E+02  0.3260E+02
     44.125  0.1184E+01  0.1184E+01  0.3283E+02  0.3283E+02
     44.326  0.1165E+01  0.1165E+01  0.3307E+02  0.3307E+02
     44.527  0.1150E+01  0.1150E+01  0.3330E+02  0.3330E+02
     44.727  0.1065E+01  0.1065E+01  0.3351E+02  0.3351E+02
     44.928  0.1072E+01  0.1072E+01  0.3373E+02  0.3373E+02
     45.128  0.9072E+00  0.9068E+00  0.3391E+02  0.3391E+02
     45.329  0.1176E+01  0.1176E+01  0.3414E+02  0.3414E+02
     45.530  0.7597E+00  0.7597E+00  0.3430E+02  0.3430E+02
     45.730  0.7449E+00  0.7457E+00  0.3445E+02  0.3445E+02
     45.931  0.9820E+00  0.9816E+00  0.3464E+02  0.3464E+02
     46.131  0.7597E+00  0.7593E+00  0.3479E+02  0.3479E+02
     46.332  0.8679E+00  0.8678E+00  0.3497E+02  0.3497E+02
     46.532  0.1007E+01  0.1007E+01  0.3517E+02  0.3517E+02
     46.733  0.9810E+00  0.9810E+00  0.3537E+02  0.3537E+02
     46.934  0.1037E+01  0.1039E+01  0.3558E+02  0.3558E+02
     47.134  0.8600E+00  0.8583E+00  0.3575E+02  0.3575E+02
     47.335  0.3177E+00  0.3175E+00  0.3581E+02  0.3581E+02
     47.535  0.1737E+00  0.1735E+00  0.3585E+02  0.3585E+02
     47.736  0.5053E-01  0.5063E-01  0.3586E+02  0.3586E+02
     47.937  0.6197E-01  0.6257E-01  0.3587E+02  0.3587E+02
     48.137  0.5822E-01  0.5824E-01  0.3588E+02  0.3588E+02
     48.338  0.1170E+00  0.1182E+00  0.3590E+02  0.3590E+02
     48.538  0.3386E+00  0.3324E+00  0.3597E+02  0.3597E+02
     48.739  0.1376E+00  0.1419E+00  0.3600E+02  0.3600E+02
     48.940  0.2065E-05  0.2189E-05  0.3600E+02  0.3600E+02
     49.140  0.0000E+00  0.0000E+00  0.3600E+02  0.3600E+02
     49.341  0.0000E+00  0.0000E+00  0.3600E+02  0.3600E+02
     49.541  0.0000E+00  0.0000E+00  0.3600E+02  0.3600E+02
     49.742  0.0000E+00  0.0000E+00  0.3600E+02  0.3600E+02
     49.943  0.0000E+00  0.0000E+00  0.3600E+02  0.3600E+02
     50.143  0.0000E+00  0.0000E+00  0.3600E+02  0.3600E+02
     50.344  0.0000E+00  0.0000E+00  0.3600E+02  0.3600E+02
     50.544  0.0000E+00  0.0000E+00  0.3600E+02  0.3600E+02
     50.745  0.0000E+00  0.0000E+00  0.3600E+02  0.3600E+02
     50.946  0.0000E+00  0.0000E+00  0.3600E+02  0.3600E+02
     51.146  0.0000E+00  0.0000E+00  0.3600E+02  0.3600E+02
     51.347  0.0000E+00  0.0000E+00  0.3600E+02  0.3600E+02
     51.34677670     -8.83179219  301      6.23792444      1.00000000
     -8.832  0.0000E+00  0.0000E+00  0.0000E+00  0.0000E+00  0.0000E+00  0.0000E+00  0.0000E+00  0.0000E+00  0.0000E+00  0.0000E+00  0.0000E+00  0.0000E+00  0.0000E+00  0.0000E+00  0.0000E+00  0.0000E+00  0.0000E+00  0.0000E+00
     -8.631  0.0000E+00  0.0000E+00  0.0000E+00  0.0000E+00  0.0000E+00  0.0000E+00  0.0000E+00  0.0000E+00  0.0000E+00  0.0000E+00  0.0000E+00  0.0000E+00  0.0000E+00  0.0000E+00  0.0000E+00  0.0000E+00  0.0000E+00  0.0000E+00
     -8.431  0.0000E+00  0.0000E+00  0.0000E+00  0.0000E+00  0.0000E+00  0.0000E+00  0.0000E+00  0.0000E+00  0.0000E+00  0.0000E+00  0.0000E+00  0.0000E+00  0.0000E+00  0.0000E+00  0.0000E+00  0.0000E+00  0.0000E+00  0.0000E+00
     -8.230  0.0000E+00  0.0000E+00  0.0000E+00  0.0000E+00  0.0000E+00  0.0000E+00  0.0000E+00  0.0000E+00  0.0000E+00  0.0000E+00  0.0000E+00  0.0000E+00  0.0000E+00  0.0000E+00  0.0000E+00  0.0000E+00  0.0000E+00  0.0000E+00
     -8.029  0.0000E+00  0.0000E+00  0.0000E+00  0.0000E+00  0.0000E+00  0.0000E+00  0.0000E+00  0.0000E+00  0.0000E+00  0.0000E+00  0.0000E+00  0.0000E+00  0.0000E+00  0.0000E+00  0.0000E+00  0.0000E+00  0.0000E+00  0.0000E+00
     -7.829  0.0000E+00  0.0000E+00  0.0000E+00  0.0000E+00  0.0000E+00  0.0000E+00  0.0000E+00  0.0000E+00  0.0000E+00  0.0000E+00  0.0000E+00  0.0000E+00  0.0000E+00  0.0000E+00  0.0000E+00  0.0000E+00  0.0000E+00  0.0000E+00
     -7.628  0.0000E+00  0.0000E+00  0.0000E+00  0.0000E+00  0.0000E+00  0.0000E+00  0.0000E+00  0.0000E+00  0.0000E+00  0.0000E+00  0.0000E+00  0.0000E+00  0.0000E+00  0.0000E+00  0.0000E+00  0.0000E+00  0.0000E+00  0.0000E+00
     -7.428  0.0000E+00  0.0000E+00  0.0000E+00  0.0000E+00  0.0000E+00  0.0000E+00  0.0000E+00  0.0000E+00  0.0000E+00  0.0000E+00  0.0000E+00  0.0000E+00  0.0000E+00  0.0000E+00  0.0000E+00  0.0000E+00  0.0000E+00  0.0000E+00
     -7.227  0.0000E+00  0.0000E+00  0.0000E+00  0.0000E+00  0.0000E+00  0.0000E+00  0.0000E+00  0.0000E+00  0.0000E+00  0.0000E+00  0.0000E+00  0.0000E+00  0.0000E+00  0.0000E+00  0.0000E+00  0.0000E+00  0.0000E+00  0.0000E+00
     -7.026  0.0000E+00  0.0000E+00  0.0000E+00  0.0000E+00  0.0000E+00  0.0000E+00  0.0000E+00  0.0000E+00  0.0000E+00  0.0000E+00  0.0000E+00  0.0000E+00  0.0000E+00  0.0000E+00  0.0000E+00  0.0000E+00  0.0000E+00  0.0000E+00
     -6.826  0.0000E+00  0.0000E+00  0.0000E+00  0.0000E+00  0.0000E+00  0.0000E+00  0.0000E+00  0.0000E+00  0.0000E+00  0.0000E+00  0.0000E+00  0.0000E+00  0.0000E+00  0.0000E+00  0.0000E+00  0.0000E+00  0.0000E+00  0.0000E+00
     -6.625  0.0000E+00  0.0000E+00  0.0000E+00  0.0000E+00  0.0000E+00  0.0000E+00  0.0000E+00  0.0000E+00  0.0000E+00  0.0000E+00  0.0000E+00  0.0000E+00  0.0000E+00  0.0000E+00  0.0000E+00  0.0000E+00  0.0000E+00  0.0000E+00
     -6.425  0.0000E+00  0.0000E+00  0.0000E+00  0.0000E+00  0.0000E+00  0.0000E+00  0.0000E+00  0.0000E+00  0.0000E+00  0.0000E+00  0.0000E+00  0.0000E+00  0.0000E+00  0.0000E+00  0.0000E+00  0.0000E+00  0.0000E+00  0.0000E+00
     -6.224  0.2546E-05  0.2558E-05  0.6886E-10  0.6920E-10  0.1496E-09  0.1503E-09  0.2066E-09  0.2076E-09  0.0000E+00  0.0000E+00  0.0000E+00  0.0000E+00  0.0000E+00  0.0000E+00  0.0000E+00  0.0000E+00  0.0000E+00  0.0000E+00
     -6.023  0.4375E-01  0.4376E-01  0.9248E-05  0.9255E-05  0.2008E-04  0.2010E-04  0.2774E-04  0.2777E-04  0.0000E+00  0.0000E+00  0.0000E+00  0.0000E+00  0.0000E+00  0.0000E+00  0.0000E+00  0.0000E+00  0.0000E+00  0.0000E+00
     -5.823  0.4032E-01  0.4032E-01  0.5244E-04  0.5245E-04  0.1138E-03  0.1138E-03  0.1573E-03  0.1573E-03  0.0000E+00  0.0000E+00  0.0000E+00  0.0000E+00  0.0000E+00  0.0000E+00  0.0000E+00  0.0000E+00  0.0000E+00  0.0000E+00
     -5.622  0.2558E-01  0.2558E-01  0.7819E-04  0.7820E-04  0.1696E-03  0.1697E-03  0.2346E-03  0.2346E-03  0.0000E+00  0.0000E+00  0.0000E+00  0.0000E+00  0.0000E+00  0.0000E+00  0.0000E+00  0.0000E+00  0.0000E+00  0.0000E+00
     -5.422  0.2057E-01  0.2057E-01  0.9689E-04  0.9689E-04  0.2095E-03  0.2095E-03  0.2907E-03  0.2907E-03  0.0000E+00  0.0000E+00  0.0000E+00  0.0000E+00  0.0000E+00  0.0000E+00  0.0000E+00  0.0000E+00  0.0000E+00  0.0000E+00
     -5.221  0.1775E-01  0.1775E-01  0.1122E-03  0.1122E-03  0.2415E-03  0.2415E-03  0.3366E-03  0.3366E-03  0.0000E+00  0.0000E+00  0.0000E+00  0.0000E+00  0.0000E+00  0.0000E+00  0.0000E+00  0.0000E+00  0.0000E+00  0.0000E+00
     -5.020  0.1606E-01  0.1606E-01  0.1260E-03  0.1260E-03  0.2748E-03  0.2748E-03  0.3780E-03  0.3780E-03  0.0000E+00  0.0000E+00  0.0000E+00  0.0000E+00  0.0000E+00  0.0000E+00  0.0000E+00  0.0000E+00  0.0000E+00  0.0000E+00
     -4.820  0.1473E-01  0.1473E-01  0.1381E-03  0.1381E-03  0.2988E-03  0.2988E-03  0.4143E-03  0.4143E-03  0.0000E+00  0.0000E+00  0.0000E+00  0.0000E+00  0.0000E+00  0.0000E+00  0.0000E+00  0.0000E+00  0.0000E+00  0.0000E+00
     -4.619  0.1328E-01  0.1328E-01  0.1437E-03  0.1437E-03  0.2992E-03  0.2992E-03  0.4311E-03  0.4311E-03  0.0000E+00  0.0000E+00  0.0000E+00  0.0000E+00  0.0000E+00  0.0000E+00  0.0000E+00  0.0000E+00  0.0000E+00  0.0000E+00
     -4.419  0.1404E-01  0.1404E-01  0.1682E-03  0.1682E-03  0.3707E-03  0.3707E-03  0.5047E-03  0.5047E-03  0.0000E+00  0.0000E+00  0.0000E+00  0.0000E+00  0.0000E+00  0.0000E+00  0.0000E+00  0.0000E+00  0.0000E+00  0.0000E+00
     -4.218  0.1215E-01  0.1214E-01  0.1617E-03  0.1617E-03  0.3241E-03  0.3241E-03  0.4850E-03  0.4850E-03  0.0000E+00  0.0000E+00  0.0000E+00  0.0000E+00  0.0000E+00  0.0000E+00  0.0000E+00  0.0000E+00  0.0000E+00  0.0000E+00
     -4.018  0.1395E-01  0.1395E-01  0.1965E-03  0.1965E-03  0.4163E-03  0.4163E-03  0.5895E-03  0.5895E-03  0.0000E+00  0.0000E+00  0.0000E+00  0.0000E+00  0.0000E+00  0.0000E+00  0.0000E+00  0.0000E+00  0.0000E+00  0.0000E+00
     -3.817  0.1541E-01  0.1541E-01  0.2254E-03  0.2254E-03  0.4094E-03  0.4094E-03  0.6762E-03  0.6762E-03  0.0000E+00  0.0000E+00  0.0000E+00  0.0000E+00  0.0000E+00  0.0000E+00  0.0000E+00  0.0000E+00  0.0000E+00  0.0000E+00
     -3.616  0.1035E+00  0.1035E+00  0.1494E-02  0.1494E-02  0.1134E-02  0.1134E-02  0.4319E-02  0.4319E-02  0.0000E+00  0.0000E+00  0.0000E+00  0.0000E+00  0.0000E+00  0.0000E+00  0.0000E+00  0.0000E+00  0.0000E+00  0.0000E+00
     -3.416  0.6138E-01  0.6138E-01  0.1079E-02  0.1079E-02  0.1212E-02  0.1212E-02  0.2721E-02  0.2721E-02  0.0000E+00  0.0000E+00  0.0000E+00  0.0000E+00  0.0000E+00  0.0000E+00  0.0000E+00  0.0000E+00  0.0000E+00  0.0000E+00
     -3.215  0.4473E-01  0.4473E-01  0.9505E-03  0.9505E-03  0.1245E-02  0.1245E-02  0.2151E-02  0.2151E-02  0.0000E+00  0.0000E+00  0.0000E+00  0.0000E+00  0.0000E+00  0.0000E+00  0.0000E+00  0.0000E+00  0.0000E+00  0.0000E+00
     -3.015  0.3860E-01  0.3859E-01  0.9383E-03  0.9383E-03  0.1384E-02  0.1384E-02  0.1984E-02  0.1984E-02  0.0000E+00  0.0000E+00  0.0000E+00  0.0000E+00  0.0000E+00  0.0000E+00  0.0000E+00  0.0000E+00  0.0000E+00  0.0000E+00
     -2.814  0.3451E-01  0.3451E-01  0.9436E-03  0.9436E-03  0.1461E-02  0.1461E-02  0.1898E-02  0.1898E-02  0.0000E+00  0.0000E+00  0.0000E+00  0.0000E+00  0.0000E+00  0.0000E+00  0.0000E+00  0.0000E+00  0.0000E+00  0.0000E+00
     -2.613  0.3306E-01  0.3306E-01  0.9909E-03  0.9909E-03  0.1603E-02  0.1603E-02  0.1950E-02  0.1950E-02  0.0000E+00  0.0000E+00  0.0000E+00  0.0000E+00  0.0000E+00  0.0000E+00  0.0000E+00  0.0000E+00  0.0000E+00  0.0000E+00
     -2.413  0.3430E-01  0.3430E-01  0.1117E-02  0.1117E-02  0.1827E-02  0.1827E-02  0.2190E-02  0.2190E-02  0.0000E+00  0.0000E+00  0.0000E+00  0.0000E+00  0.0000E+00  0.0000E+00  0.0000E+00  0.0000E+00  0.0000E+00  0.0000E+00
     -2.212  0.1326E+00  0.1326E+00  0.4694E-02  0.4694E-02  0.6988E-02  0.6988E-02  0.9540E-02  0.9540E-02  0.0000E+00  0.0000E+00  0.0000E+00  0.0000E+00  0.0000E+00  0.0000E+00  0.0000E+00  0.0000E+00  0.0000E+00  0.0000E+00
     -2.012  0.1018E+00  0.1018E+00  0.3617E-02  0.3617E-02  0.5872E-02  0.5872E-02  0.8779E-02  0.8779E-02  0.0000E+00  0.0000E+00  0.0000E+00  0.0000E+00  0.0000E+00  0.0000E+00  0.0000E+00  0.0000E+00  0.0000E+00  0.0000E+00
     -1.811  0.2624E+00  0.2624E+00  0.1012E-01  0.1012E-01  0.1962E-01  0.1962E-01  0.2945E-01  0.2945E-01  0.0000E+00  0.0000E+00  0.0000E+00  0.0000E+00  0.0000E+00  0.0000E+00  0.0000E+00  0.0000E+00  0.0000E+00  0.0000E+00
     -1.610  0.1656E+00  0.1656E+00  0.6472E-02  0.6472E-02  0.1211E-01  0.1211E-01  0.1830E-01  0.1830E-01  0.0000E+00  0.0000E+00  0.0000E+00  0.0000E+00  0.0000E+00  0.0000E+00  0.0000E+00  0.0000E+00  0.0000E+00  0.0000E+00
     -1.410  0.9037E-01  0.9037E-01  0.4421E-02  0.4421E-02  0.7379E-02  0.7379E-02  0.1126E-01  0.1126E-01  0.0000E+00  0.0000E+00  0.0000E+00  0.0000E+00  0.0000E+00  0.0000E+00  0.0000E+00  0.0000E+00  0.0000E+00  0.0000E+00
     -1.209  0.1365E+00  0.1365E+00  0.8090E-02  0.8090E-02  0.1308E-01  0.1308E-01  0.1904E-01  0.1904E-01  0.0000E+00  0.0000E+00  0.0000E+00  0.0000E+00  0.0000E+00  0.0000E+00  0.0000E+00  0.0000E+00  0.0000E+00  0.0000E+00
     -1.009  0.8149E-01  0.8151E-01  0.1158E-01  0.1159E-01  0.7839E-02  0.7841E-02  0.3566E-01  0.3567E-01  0.0000E+00  0.0000E+00  0.0000E+00  0.0000E+00  0.0000E+00  0.0000E+00  0.0000E+00  0.0000E+00  0.0000E+00  0.0000E+00
     -0.808  0.1052E+00  0.1051E+00  0.1297E-01  0.1296E-01  0.8454E-02  0.8452E-02  0.4361E-01  0.4360E-01  0.0000E+00  0.0000E+00  0.0000E+00  0.0000E+00  0.0000E+00  0.0000E+00  0.0000E+00  0.0000E+00  0.0000E+00  0.0000E+00
     -0.607  0.8428E-02  0.8427E-02  0.8126E-03  0.8125E-03  0.1124E-02  0.1124E-02  0.2463E-02  0.2462E-02  0.0000E+00  0.0000E+00  0.0000E+00  0.0000E+00  0.0000E+00  0.0000E+00  0.0000E+00  0.0000E+00  0.0000E+00  0.0000E+00
     -0.407  0.6307E-02  0.6306E-02  0.5915E-03  0.5914E-03  0.9066E-03  0.9066E-03  0.1774E-02  0.1774E-02  0.0000E+00  0.0000E+00  0.0000E+00  0.0000E+00  0.0000E+00  0.0000E+00  0.0000E+00  0.0000E+00  0.0000E+00  0.0000E+00
     -0.206  0.6508E-02  0.6509E-02  0.6084E-03  0.6085E-03  0.1033E-02  0.1033E-02  0.1825E-02  0.1825E-02  0.0000E+00  0.0000E+00  0.0000E+00  0.0000E+00  0.0000E+00  0.0000E+00  0.0000E+00  0.0000E+00  0.0000E+00  0.0000E+00
     -0.006  0.5952E-02  0.5952E-02  0.6059E-03  0.6059E-03  0.9743E-03  0.9743E-03  0.1818E-02  0.1818E-02  0.0000E+00  0.0000E+00  0.0000E+00  0.0000E+00  0.0000E+00  0.0000E+00  0.0000E+00  0.0000E+00  0.0000E+00  0.0000E+00
      0.195  0.5461E-02  0.5461E-02  0.5784E-03  0.5784E-03  0.9157E-03  0.9157E-03  0.1735E-02  0.1735E-02  0.0000E+00  0.0000E+00  0.0000E+00  0.0000E+00  0.0000E+00  0.0000E+00  0.0000E+00  0.0000E+00  0.0000E+00  0.0000E+00
      0.396  0.5553E-02  0.5553E-02  0.5829E-03  0.5829E-03  0.9863E-03  0.9863E-03  0.1749E-02  0.1749E-02  0.0000E+00  0.0000E+00  0.0000E+00  0.0000E+00  0.0000E+00  0.0000E+00  0.0000E+00  0.0000E+00  0.0000E+00  0.0000E+00
      0.596  0.5643E-02  0.5643E-02  0.5945E-03  0.5945E-03  0.1071E-02  0.1071E-02  0.1784E-02  0.1784E-02  0.0000E+00  0.0000E+00  0.0000E+00  0.0000E+00  0.0000E+00  0.0000E+00  0.0000E+00  0.0000E+00  0.0000E+00  0.0000E+00
      0.797  0.5515E-02  0.5515E-02  0.5948E-03  0.5948E-03  0.1113E-02  0.1113E-02  0.1784E-02  0.1784E-02  0.0000E+00  0.0000E+00  0.0000E+00  0.0000E+00  0.0000E+00  0.0000E+00  0.0000E+00  0.0000E+00  0.0000E+00  0.0000E+00
      0.997  0.5231E-02  0.5231E-02  0.5824E-03  0.5824E-03  0.1118E-02  0.1118E-02  0.1747E-02  0.1747E-02  0.0000E+00  0.0000E+00  0.0000E+00  0.0000E+00  0.0000E+00  0.0000E+00  0.0000E+00  0.0000E+00  0.0000E+00  0.0000E+00
      1.198  0.4818E-02  0.4818E-02  0.5573E-03  0.5573E-03  0.1093E-02  0.1093E-02  0.1672E-02  0.1672E-02  0.0000E+00  0.0000E+00  0.0000E+00  0.0000E+00  0.0000E+00  0.0000E+00  0.0000E+00  0.0000E+00  0.0000E+00  0.0000E+00