    2    2    1    2
  0.1980791E+02  0.3826437E-09  0.3826437E-09  0.3826437E-09  0.5000000E-15
  1.000000000000000E-004
  CAR 
 unknown system                          
      8    400     36
 
  0.0000000E+00  0.0000000E+00  0.0000000E+00  0.2500000E-02
    1       -6.096360     -6.096403   1.000000   1.000000
    2        5.935268      5.935328   1.000000   1.000000
    3        5.935269      5.935329   1.000000   1.000000
    4        5.935269      5.935330   1.000000   1.000000
    5        8.505052      8.504936   0.000000   0.000000
    6        8.505052      8.504936   0.000000   0.000000
    7        8.505053      8.504936   0.000000   0.000000
    8        9.433002      9.432918   0.000000   0.000000
    9       13.660253     13.660173   0.000000   0.000000
   10       13.660253     13.660173   0.000000   0.000000
   11       13.938216     13.938017   0.000000   0.000000
   12       17.224189     17.223948   0.000000   0.000000
   13       17.224189     17.223949   0.000000   0.000000
   14       17.224190     17.223949   0.000000   0.000000
   15       21.410886     21.410636   0.000000   0.000000
   16       29.168656     29.168527   0.000000   0.000000
   17       29.168657     29.168527   0.000000   0.000000
   18       29.168657     29.168528   0.000000   0.000000
   19       30.281672     30.281558   0.000000   0.000000
   20       30.281672     30.281558   0.000000   0.000000
   21       31.979107     31.979075   0.000000   0.000000
   22       31.979107     31.979076   0.000000   0.000000
   23       31.979107     31.979076   0.000000   0.000000
   24       35.298057     35.298024   0.000000   0.000000
   25       35.298057     35.298024   0.000000   0.000000
   26       35.298057     35.298025   0.000000   0.000000
   27       41.085800     41.085623   0.000000   0.000000
   28       41.085800     41.085623   0.000000   0.000000
   29       41.085800     41.085624   0.000000   0.000000
   30       44.566042     44.566006   0.000000   0.000000
   31       44.923298     44.923139   0.000000   0.000000
   32       44.923298     44.923141   0.000000   0.000000
   33       46.817614     46.817477   0.000000   0.000000
   34       46.817627     46.817491   0.000000   0.000000
   35       48.515566     48.515451   0.000000   0.000000
   36       48.515689     48.515493   0.000000   0.000000
 
  0.1282051E-01  0.0000000E+00  0.1282051E-01  0.2500000E-02
    1       -6.093454     -6.093497   1.000000   1.000000
    2        5.915794      5.915853   1.000000   1.000000
    3        5.922532      5.922592   1.000000   1.000000
    4        5.922533      5.922593   1.000000   1.000000
    5        8.497783      8.497666   0.000000   0.000000
    6        8.521366      8.521251   0.000000   0.000000
    7        8.521367      8.521251   0.000000   0.000000
    8        9.452110      9.452027   0.000000   0.000000
    9       13.636078     13.635996   0.000000   0.000000
   10       13.663461     13.663381   0.000000   0.000000
   11       13.951212     13.951013   0.000000   0.000000
   12       17.229228     17.228988   0.000000   0.000000
   13       17.229229     17.228988   0.000000   0.000000
   14       17.241223     17.240984   0.000000   0.000000
   15       21.432030     21.431780   0.000000   0.000000
   16       29.122154     29.122026   0.000000   0.000000
   17       29.122155     29.122027   0.000000   0.000000
   18       29.172302     29.172173   0.000000   0.000000
   19       30.242565     30.242451   0.000000   0.000000
   20       30.256894     30.256781   0.000000   0.000000
   21       31.995510     31.995477   0.000000   0.000000
   22       32.009667     32.009635   0.000000   0.000000
   23       32.009667     32.009635   0.000000   0.000000
   24       35.320492     35.320459   0.000000   0.000000
   25       35.320492     35.320459   0.000000   0.000000
   26       35.339085     35.339051   0.000000   0.000000
   27       41.064593     41.064418   0.000000   0.000000
   28       41.065001     41.064825   0.000000   0.000000
   29       41.065002     41.064825   0.000000   0.000000
   30       44.581632     44.581595   0.000000   0.000000
   31       44.871422     44.871263   0.000000   0.000000
   32       44.915515     44.915356   0.000000   0.000000
   33       46.735828     46.735701   0.000000   0.000000
   34       46.813092     46.812967   0.000000   0.000000
   35       48.513942     48.515437   0.000000   0.000000
   36       48.523808     48.523453   0.000000   0.000000
 
  0.2564103E-01  0.0000000E+00  0.2564103E-01  0.2500000E-02
    1       -6.084737     -6.084780   1.000000   1.000000
    2        5.858684      5.858741   1.000000   1.000000
    3        5.885303      5.885359   1.000000   1.000000
    4        5.885303      5.885360   1.000000   1.000000
    5        8.476209      8.476092   0.000000   0.000000
    6        8.569326      8.569213   0.000000   0.000000
    7        8.569326      8.569214   0.000000   0.000000
    8        9.507896      9.507815   0.000000   0.000000
    9       13.565834     13.565748   0.000000   0.000000
   10       13.673085     13.673005   0.000000   0.000000
   11       13.989955     13.989757   0.000000   0.000000
   12       17.244343     17.244102   0.000000   0.000000
   13       17.244343     17.244103   0.000000   0.000000
   14       17.290458     17.290223   0.000000   0.000000
   15       21.495243     21.494994   0.000000   0.000000
   16       28.989808     28.989683   0.000000   0.000000
   17       28.989808     28.989683   0.000000   0.000000
   18       29.183261     29.183131   0.000000   0.000000
   19       30.128990     30.128878   0.000000   0.000000
   20       30.185516     30.185407   0.000000   0.000000
   21       32.041765     32.041729   0.000000   0.000000
   22       32.094033     32.093999   0.000000   0.000000
   23       32.094034     32.093999   0.000000   0.000000
   24       35.387930     35.387896   0.000000   0.000000
   25       35.387930     35.387897   0.000000   0.000000
   26       35.458350     35.458314   0.000000   0.000000
   27       41.001897     41.001724   0.000000   0.000000
   28       41.002949     41.002772   0.000000   0.000000
   29       41.002949     41.002772   0.000000   0.000000
   30       44.625901     44.625862   0.000000   0.000000
   31       44.720384     44.720226   0.000000   0.000000
   32       44.892392     44.892235   0.000000   0.000000
   33       46.514799     46.514658   0.000000   0.000000
   34       46.799893     46.799761   0.000000   0.000000
   35       48.504199     48.504936   0.000000   0.000000
   36       48.546467     48.546353   0.000000   0.000000
 
  0.3846154E-01  0.0000000E+00  0.3846154E-01  0.2500000E-02
    1       -6.070212     -6.070254   1.000000   1.000000
    2        5.767494      5.767549   1.000000   1.000000
    3        5.826219      5.826271   1.000000   1.000000
    4        5.826220      5.826272   1.000000   1.000000
    5        8.441014      8.440896   0.000000   0.000000
    6        8.646278      8.646170   0.000000   0.000000
    7        8.646278      8.646170   0.000000   0.000000
    8        9.596116      9.596038   0.000000   0.000000
    9       13.455737     13.455646   0.000000   0.000000
   10       13.689125     13.689045   0.000000   0.000000
   11       14.053743     14.053546   0.000000   0.000000
   12       17.269524     17.269283   0.000000   0.000000
   13       17.269524     17.269284   0.000000   0.000000
   14       17.366981     17.366752   0.000000   0.000000
   15       21.599849     21.599600   0.000000   0.000000
   16       28.788530     28.788408   0.000000   0.000000
   17       28.788530     28.788409   0.000000   0.000000
   18       29.201597     29.201468   0.000000   0.000000
   19       29.950672     29.950563   0.000000   0.000000
   20       30.074743     30.074638   0.000000   0.000000
   21       32.110677     32.110636   0.000000   0.000000
   22       32.215018     32.214981   0.000000   0.000000
   23       32.215018     32.214981   0.000000   0.000000
   24       35.500591     35.500556   0.000000   0.000000
   25       35.500592     35.500556   0.000000   0.000000
   26       35.645916     35.645877   0.000000   0.000000
   27       40.900166     40.899998   0.000000   0.000000
   28       40.900702     40.900526   0.000000   0.000000
   29       40.900702     40.900526   0.000000   0.000000
   30       44.482231     44.482075   0.000000   0.000000
   31       44.690205     44.690161   0.000000   0.000000
   32       44.854601     44.854444   0.000000   0.000000
   33       46.207733     46.207607   0.000000   0.000000
   34       46.778863     46.778749   0.000000   0.000000
   35       48.484349     48.484709   0.000000   0.000000
   36       48.579677     48.579783   0.000000   0.000000
 
  0.5128205E-01  0.0000000E+00  0.5128205E-01  0.2500000E-02
    1       -6.049885     -6.049927   1.000000   1.000000
    2        5.647059      5.647110   1.000000   1.000000
    3        5.748889      5.748935   1.000000   1.000000
    4        5.748889      5.748936   1.000000   1.000000
    5        8.393257      8.393138   0.000000   0.000000
    6        8.748592      8.748489   0.000000   0.000000
    7        8.748592      8.748489   0.000000   0.000000
    8        9.710598      9.710523   0.000000   0.000000
    9       13.314514     13.314416   0.000000   0.000000
   10       13.711581     13.711501   0.000000   0.000000
   11       14.141483     14.141286   0.000000   0.000000
   12       17.304750     17.304510   0.000000   0.000000
   13       17.304751     17.304511   0.000000   0.000000
   14       17.464416     17.464193   0.000000   0.000000
   15       21.744669     21.744421   0.000000   0.000000
   16       28.536798     28.536680   0.000000   0.000000
   17       28.536798     28.536681   0.000000   0.000000
   18       29.227421     29.227291   0.000000   0.000000
   19       29.719999     29.719894   0.000000   0.000000
   20       29.932848     29.932748   0.000000   0.000000
   21       32.193982     32.193935   0.000000   0.000000
   22       32.354186     32.354147   0.000000   0.000000
   23       32.354186     32.354147   0.000000   0.000000
   24       35.658307     35.658270   0.000000   0.000000
   25       35.658307     35.658270   0.000000   0.000000
   26       35.889030     35.888987   0.000000   0.000000
   27       40.759748     40.759572   0.000000   0.000000
   28       40.759748     40.759572   0.000000   0.000000
   29       40.762632     40.762470   0.000000   0.000000
   30       44.172088     44.171932   0.000000   0.000000
   31       44.753262     44.753209   0.000000   0.000000
   32       44.803180     44.803023   0.000000   0.000000
   33       45.874721     45.874603   0.000000   0.000000
   34       46.751436     46.751324   0.000000   0.000000
   35       48.448391     48.450669   0.000000   0.000000
   36       48.611387     48.610981   0.000000   0.000000
 
  0.6410256E-01  0.0000000E+00  0.6410256E-01  0.2500000E-02
    1       -6.023760     -6.023801   1.000000   1.000000
    2        5.502537      5.502585   1.000000   1.000000
    3        5.657152      5.657193   1.000000   1.000000
    4        5.657153      5.657194   1.000000   1.000000
    5        8.334276      8.334156   0.000000   0.000000
    6        8.872388      8.872291   0.000000   0.000000
    7        8.872389      8.872291   0.000000   0.000000
    8        9.844012      9.843940   0.000000   0.000000
    9       13.152109     13.152005   0.000000   0.000000
   10       13.740449     13.740369   0.000000   0.000000
   11       14.251789     14.251594   0.000000   0.000000
   12       17.349997     17.349757   0.000000   0.000000
   13       17.349998     17.349758   0.000000   0.000000
   14       17.576501     17.576285   0.000000   0.000000
   15       21.927985     21.927738   0.000000   0.000000
   16       28.249898     28.249784   0.000000   0.000000
   17       28.249899     28.249785   0.000000   0.000000
   18       29.260893     29.260763   0.000000   0.000000
   19       29.449098     29.448996   0.000000   0.000000
   20       29.767084     29.766987   0.000000   0.000000
   21       32.284452     32.284400   0.000000   0.000000
   22       32.497171     32.497132   0.000000   0.000000
   23       32.497171     32.497132   0.000000   0.000000
   24       35.859990     35.859950   0.000000   0.000000
   25       35.859990     35.859950   0.000000   0.000000
   26       36.175044     36.174997   0.000000   0.000000
   27       40.582049     40.581873   0.000000   0.000000
   28       40.582050     40.581873   0.000000   0.000000
   29       40.592518     40.592362   0.000000   0.000000
   30       43.805255     43.805100   0.000000   0.000000
   31       44.739315     44.739158   0.000000   0.000000
   32       44.756875     44.756803   0.000000   0.000000
   33       45.599005     45.598904   0.000000   0.000000
   34       46.719510     46.719391   0.000000   0.000000
   35       48.414706     48.412256   0.000000   0.000000
   36       48.580107     48.581286   0.000000   0.000000
 
  0.7692308E-01  0.0000000E+00  0.7692308E-01  0.2500000E-02
    1       -5.991852     -5.991894   1.000000   1.000000
    2        5.338705      5.338749   1.000000   1.000000
    3        5.554595      5.554630   1.000000   1.000000
    4        5.554596      5.554631   1.000000   1.000000
    5        8.265562      8.265439   0.000000   0.000000
    6        9.014044      9.013952   0.000000   0.000000
    7        9.014044      9.013952   0.000000   0.000000
    8        9.988125      9.988055   0.000000   0.000000
    9       12.979109     12.978998   0.000000   0.000000
   10       13.775730     13.775650   0.000000   0.000000
   11       14.383088     14.382894   0.000000   0.000000
   12       17.405218     17.404979   0.000000   0.000000
   13       17.405219     17.404980   0.000000   0.000000
   14       17.698087     17.697877   0.000000   0.000000
   15       22.147545     22.147300   0.000000   0.000000
   16       27.939038     27.938927   0.000000   0.000000
   17       27.939039     27.938927   0.000000   0.000000
   18       29.148297     29.148198   0.000000   0.000000
   19       29.302232     29.302102   0.000000   0.000000
   20       29.582964     29.582872   0.000000   0.000000
   21       32.376428     32.376370   0.000000   0.000000
   22       32.634888     32.634849   0.000000   0.000000
   23       32.634888     32.634849   0.000000   0.000000
   24       36.103237     36.103195   0.000000   0.000000
   25       36.103237     36.103195   0.000000   0.000000
   26       36.492927     36.492875   0.000000   0.000000
   27       40.369998     40.369822   0.000000   0.000000
   28       40.369998     40.369822   0.000000   0.000000
   29       40.392459     40.392310   0.000000   0.000000
   30       43.394716     43.394562   0.000000   0.000000
   31       44.597402     44.597302   0.000000   0.000000
   32       44.664543     44.664387   0.000000   0.000000
   33       45.498622     45.498544   0.000000   0.000000
   34       46.685268     46.685174   0.000000   0.000000
   35       48.265395     48.265211   0.000000   0.000000
   36       48.271599     48.286000   0.000000   0.000000
 
  0.8974359E-01  0.0000000E+00  0.8974359E-01  0.2500000E-02
    1       -5.954167     -5.954208   1.000000   1.000000
    2        5.159645      5.159686   1.000000   1.000000
    3        5.444297      5.444327   1.000000   1.000000
    4        5.444297      5.444327   1.000000   1.000000
    5        8.188706      8.188582   0.000000   0.000000
    6        9.170434      9.170347   0.000000   0.000000
    7        9.170434      9.170347   0.000000   0.000000
    8       10.133422     10.133353   0.000000   0.000000
    9       12.807020     12.806905   0.000000   0.000000
   10       13.817420     13.817340   0.000000   0.000000
   11       14.533725     14.533533   0.000000   0.000000
   12       17.470359     17.470120   0.000000   0.000000
   13       17.470360     17.470121   0.000000   0.000000
   14       17.825494     17.825290   0.000000   0.000000
   15       22.400629     22.400385   0.000000   0.000000
   16       27.612108     27.611999   0.000000   0.000000
   17       27.612108     27.612000   0.000000   0.000000
   18       28.825716     28.825619   0.000000   0.000000
   19       29.351726     29.351596   0.000000   0.000000
   20       29.384692     29.384603   0.000000   0.000000
   21       32.465821     32.465758   0.000000   0.000000
   22       32.762718     32.762680   0.000000   0.000000
   23       32.762718     32.762680   0.000000   0.000000
   24       36.384487     36.384443   0.000000   0.000000
   25       36.384487     36.384443   0.000000   0.000000
   26       36.833703     36.833648   0.000000   0.000000
   27       40.126308     40.126131   0.000000   0.000000
   28       40.126308     40.126131   0.000000   0.000000
   29       40.164420     40.164279   0.000000   0.000000
   30       42.951010     42.950857   0.000000   0.000000
   31       44.290493     44.290376   0.000000   0.000000
   32       44.580431     44.580275   0.000000   0.000000
   33       45.567281     45.567211   0.000000   0.000000
   34       46.651227     46.651110   0.000000   0.000000
   35       47.852132     47.852232   0.000000   0.000000
   36       47.852927     47.853055   0.000000   0.000000
 
  0.1025641E+00  0.0000000E+00  0.1025641E+00  0.2500000E-02
    1       -5.910722     -5.910763   1.000000   1.000000
    2        4.968665      4.968702   1.000000   1.000000
    3        5.328772      5.328797   1.000000   1.000000
    4        5.328772      5.328798   1.000000   1.000000
    5        8.105279      8.105154   0.000000   0.000000
    6        9.338982      9.338899   0.000000   0.000000
    7        9.338982      9.338900   0.000000   0.000000
    8       10.268097     10.268026   0.000000   0.000000
    9       12.649228     12.649111   0.000000   0.000000
   10       13.865518     13.865438   0.000000   0.000000
   11       14.702022     14.701832   0.000000   0.000000
   12       17.545330     17.545092   0.000000   0.000000
   13       17.545331     17.545093   0.000000   0.000000
   14       17.956436     17.956236   0.000000   0.000000
   15       22.684139     22.683897   0.000000   0.000000
   16       27.274747     27.274641   0.000000   0.000000
   17       27.274747     27.274641   0.000000   0.000000
   18       28.487666     28.487571   0.000000   0.000000
   19       29.175325     29.175239   0.000000   0.000000
   20       29.409740     29.409610   0.000000   0.000000
   21       32.549428     32.549360   0.000000   0.000000
   22       32.879119     32.879083   0.000000   0.000000
   23       32.879120     32.879083   0.000000   0.000000
   24       36.698973     36.698927   0.000000   0.000000
   25       36.698973     36.698927   0.000000   0.000000
   26       37.189851     37.189791   0.000000   0.000000
   27       39.853716     39.853539   0.000000   0.000000
   28       39.853716     39.853539   0.000000   0.000000
   29       39.909672     39.909538   0.000000   0.000000
   30       42.482248     42.482095   0.000000   0.000000
   31       43.934296     43.934172   0.000000   0.000000
   32       44.488489     44.488333   0.000000   0.000000
   33       45.711935     45.711869   0.000000   0.000000
   34       46.620066     46.619931   0.000000   0.000000
   35       47.435359     47.435244   0.000000   0.000000
   36       47.435998     47.435459   0.000000   0.000000
 
  0.1153846E+00  0.0000000E+00  0.1153846E+00  0.2500000E-02
    1       -5.861531     -5.861571   1.000000   1.000000
    2        4.768380      4.768415   1.000000   1.000000
    3        5.210044      5.210065   1.000000   1.000000
    4        5.210045      5.210066   1.000000   1.000000
    5        8.016768      8.016640   0.000000   0.000000
    6        9.517613      9.517535   0.000000   0.000000
    7        9.517613      9.517535   0.000000   0.000000
    8       10.377159     10.377084   0.000000   0.000000
    9       12.522059     12.521944   0.000000   0.000000
   10       13.920021     13.919941   0.000000   0.000000
   11       14.886370     14.886181   0.000000   0.000000
   12       17.630020     17.629783   0.000000   0.000000
   13       17.630021     17.629784   0.000000   0.000000
   14       18.089757     18.089561   0.000000   0.000000
   15       22.994757     22.994518   0.000000   0.000000
   16       26.930937     26.930832   0.000000   0.000000
   17       26.930937     26.930832   0.000000   0.000000
   18       28.138779     28.138686   0.000000   0.000000
   19       28.957186     28.957102   0.000000   0.000000
   20       29.476772     29.476641   0.000000   0.000000
   21       32.624778     32.624705   0.000000   0.000000
   22       32.984447     32.984411   0.000000   0.000000
   23       32.984447     32.984411   0.000000   0.000000
   24       37.041494     37.041446   0.000000   0.000000
   25       37.041495     37.041447   0.000000   0.000000
   26       37.555435     37.555370   0.000000   0.000000
   27       39.555678     39.555500   0.000000   0.000000
   28       39.555678     39.555500   0.000000   0.000000
   29       39.629290     39.629163   0.000000   0.000000
   30       41.994663     41.994511   0.000000   0.000000
   31       43.575876     43.575748   0.000000   0.000000
   32       44.390237     44.390081   0.000000   0.000000
   33       45.888823     45.888758   0.000000   0.000000
   34       46.594626     46.594526   0.000000   0.000000
   35       47.026093     47.025954   0.000000   0.000000
   36       47.026178     47.025983   0.000000   0.000000
 
  0.1282051E+00  0.0000000E+00  0.1282051E+00  0.2500000E-02
    1       -5.806617     -5.806658   1.000000   1.000000
    2        4.560822      4.560854   1.000000   1.000000
    3        5.089692      5.089709   1.000000   1.000000
    4        5.089693      5.089710   1.000000   1.000000
    5        7.924552      7.924423   0.000000   0.000000
    6        9.704668      9.704594   0.000000   0.000000
    7        9.704668      9.704594   0.000000   0.000000
    8       10.442896     10.442812   0.000000   0.000000
    9       12.444237     12.444127   0.000000   0.000000
   10       13.980926     13.980846   0.000000   0.000000
   11       15.085208     15.085021   0.000000   0.000000
   12       17.724268     17.724032   0.000000   0.000000
   13       17.724269     17.724032   0.000000   0.000000
   14       18.225113     18.224921   0.000000   0.000000
   15       23.329045     23.328808   0.000000   0.000000
   16       26.583604     26.583500   0.000000   0.000000
   17       26.583604     26.583500   0.000000   0.000000
   18       27.782446     27.782355   0.000000   0.000000
   19       28.732092     28.732010   0.000000   0.000000
   20       29.553336     29.553204   0.000000   0.000000
   21       32.689783     32.689705   0.000000   0.000000
   22       33.079699     33.079665   0.000000   0.000000
   23       33.079700     33.079666   0.000000   0.000000
   24       37.405819     37.405770   0.000000   0.000000
   25       37.405819     37.405770   0.000000   0.000000
   26       37.925258     37.925189   0.000000   0.000000
   27       39.236565     39.236385   0.000000   0.000000
   28       39.236565     39.236385   0.000000   0.000000
   29       39.324228     39.324108   0.000000   0.000000
   30       41.493018     41.492867   0.000000   0.000000
   31       43.233253     43.233122   0.000000   0.000000
   32       44.287046     44.286892   0.000000   0.000000
   33       46.081563     46.081491   0.000000   0.000000
   34       46.578024     46.578012   0.000000   0.000000
   35       46.628405     46.628268   0.000000   0.000000
   36       46.628495     46.628378   0.000000   0.000000
 
  0.1410256E+00  0.0000000E+00  0.1410256E+00  0.2500000E-02
    1       -5.745995     -5.746035   1.000000   1.000000
    2        4.347562      4.347593   1.000000   1.000000
    3        4.968979      4.968992   1.000000   1.000000
    4        4.968980      4.968993   1.000000   1.000000
    5        7.829907      7.829776   0.000000   0.000000
    6        9.898833      9.898762   0.000000   0.000000
    7        9.898833      9.898762   0.000000   0.000000
    8       10.449969     10.449873   0.000000   0.000000
    9       12.431958     12.431858   0.000000   0.000000
   10       14.048229     14.048149   0.000000   0.000000
   11       15.297093     15.296908   0.000000   0.000000
   12       17.827867     17.827632   0.000000   0.000000
   13       17.827868     17.827632   0.000000   0.000000
   14       18.362697     18.362507   0.000000   0.000000
   15       23.683536     23.683302   0.000000   0.000000
   16       26.235120     26.235017   0.000000   0.000000
   17       26.235120     26.235017   0.000000   0.000000
   18       27.421525     27.421435   0.000000   0.000000
   19       28.501559     28.501479   0.000000   0.000000
   20       29.640204     29.640072   0.000000   0.000000
   21       32.742603     32.742520   0.000000   0.000000
   22       33.166264     33.166231   0.000000   0.000000
   23       33.166264     33.166231   0.000000   0.000000
   24       37.781626     37.781576   0.000000   0.000000
   25       37.781627     37.781577   0.000000   0.000000
   26       38.294746     38.294673   0.000000   0.000000
   27       38.905503     38.905321   0.000000   0.000000
   28       38.905503     38.905321   0.000000   0.000000
   29       38.996128     38.996015   0.000000   0.000000
   30       40.981009     40.980858   0.000000   0.000000
   31       42.914743     42.914611   0.000000   0.000000
   32       44.180210     44.180055   0.000000   0.000000
   33       46.244119     46.244001   0.000000   0.000000
   34       46.244154     46.244038   0.000000   0.000000
   35       46.282141     46.282036   0.000000   0.000000
   36       46.573358     46.573258   0.000000   0.000000
 
  0.1538462E+00  0.0000000E+00  0.1538462E+00  0.2500000E-02
    1       -5.679689     -5.679729   1.000000   1.000000
    2        4.129815      4.129843   1.000000   1.000000
    3        4.848894      4.848903   1.000000   1.000000
    4        4.848894      4.848904   1.000000   1.000000
    5        7.733957      7.733825   0.000000   0.000000
    6       10.099045     10.098977   0.000000   0.000000
    7       10.099045     10.098977   0.000000   0.000000
    8       10.393646     10.393536   0.000000   0.000000
    9       12.490623     12.490534   0.000000   0.000000
   10       14.121926     14.121846   0.000000   0.000000
   11       15.520666     15.520483   0.000000   0.000000
   12       17.940526     17.940292   0.000000   0.000000
   13       17.940526     17.940292   0.000000   0.000000
   14       18.503012     18.502824   0.000000   0.000000
   15       24.054777     24.054546   0.000000   0.000000
   16       25.887303     25.887201   0.000000   0.000000
   17       25.887303     25.887201   0.000000   0.000000
   18       27.057926     27.057838   0.000000   0.000000
   19       28.266877     28.266799   0.000000   0.000000
   20       29.738283     29.738150   0.000000   0.000000
   21       32.781474     32.781385   0.000000   0.000000
   22       33.245167     33.245136   0.000000   0.000000
   23       33.245168     33.245136   0.000000   0.000000
   24       38.118232     38.118170   0.000000   0.000000
   25       38.118233     38.118171   0.000000   0.000000
   26       38.612543     38.612371   0.000000   0.000000
   27       38.612544     38.612372   0.000000   0.000000
   28       38.647310     38.647202   0.000000   0.000000
   29       38.659613     38.659534   0.000000   0.000000
   30       40.461519     40.461369   0.000000   0.000000
   31       42.624331     42.624197   0.000000   0.000000
   32       44.070864     44.070710   0.000000   0.000000
   33       45.874098     45.873989   0.000000   0.000000
   34       45.874109     45.874001   0.000000   0.000000
   35       46.485199     46.485126   0.000000   0.000000
   36       46.584081     46.583945   0.000000   0.000000
 
  0.1666667E+00  0.0000000E+00  0.1666667E+00  0.2500000E-02
    1       -5.607724     -5.607763   1.000000   1.000000
    2        3.908512      3.908539   1.000000   1.000000
    3        4.730223      4.730230   1.000000   1.000000
    4        4.730223      4.730230   1.000000   1.000000
    5        7.637702      7.637567   0.000000   0.000000
    6       10.282495     10.282373   0.000000   0.000000
    7       10.304448     10.304382   0.000000   0.000000
    8       10.304448     10.304383   0.000000   0.000000
    9       12.612186     12.612107   0.000000   0.000000
   10       14.202013     14.201933   0.000000   0.000000
   11       15.754651     15.754469   0.000000   0.000000
   12       18.061855     18.061622   0.000000   0.000000
   13       18.061855     18.061623   0.000000   0.000000
   14       18.646722     18.646535   0.000000   0.000000
   15       24.439322     24.439094   0.000000   0.000000
   16       25.541732     25.541630   0.000000   0.000000
   17       25.541732     25.541631   0.000000   0.000000
   18       26.693188     26.693101   0.000000   0.000000
   19       28.029213     28.029137   0.000000   0.000000
   20       29.848702     29.848567   0.000000   0.000000
   21       32.804586     32.804492   0.000000   0.000000
   22       33.316967     33.316937   0.000000   0.000000
   23       33.316967     33.316937   0.000000   0.000000
   24       38.050748     38.050600   0.000000   0.000000
   25       38.050749     38.050601   0.000000   0.000000
   26       38.280942     38.280840   0.000000   0.000000
   27       38.722658     38.722569   0.000000   0.000000
   28       38.722658     38.722570   0.000000   0.000000
   29       39.015730     39.015645   0.000000   0.000000
   30       39.936802     39.936652   0.000000   0.000000