 vasp.5.4.1 05Feb16 (build Apr 16 2019 13:49:49) complex                        
  
 executed on           IFC91_ompi date 2019.07.24  08:50:39
 running on   36 total cores
 distrk:  each k-point on   36 cores,    1 groups
 distr:  one band on NCORES_PER_BAND=   1 cores,   36 groups


--------------------------------------------------------------------------------------------------------


 INCAR:
 POTCAR:    PAW_PBE Si 05Jan2001                  

 ----------------------------------------------------------------------------- 
|                                                                             |
|           W    W    AA    RRRRR   N    N  II  N    N   GGGG   !!!           |
|           W    W   A  A   R    R  NN   N  II  NN   N  G    G  !!!           |
|           W    W  A    A  R    R  N N  N  II  N N  N  G       !!!           |
|           W WW W  AAAAAA  RRRRR   N  N N  II  N  N N  G  GGG   !            |
|           WW  WW  A    A  R   R   N   NN  II  N   NN  G    G                |
|           W    W  A    A  R    R  N    N  II  N    N   GGGG   !!!           |
|                                                                             |
|      For optimal performance we recommend to set                            |
|        NCORE= 4 - approx SQRT( number of cores)                             |
|      NCORE specifies how many cores store one orbital (NPAR=cpu/NCORE).     |
|      This setting can  greatly improve the performance of VASP for DFT.     |
|      The default, NPAR=number of cores might be grossly inefficient         |
|      on modern multi-core architectures or massively parallel machines.     |
|      Do your own testing !!!!                                               |
|      Unfortunately you need to use the default for GW and RPA calculations. |
|      (for HF NCORE is supported but not extensively tested yet)             |
|                                                                             |
 ----------------------------------------------------------------------------- 

 POTCAR:    PAW_PBE Si 05Jan2001                  
   VRHFIN =Si: s2p2                                                             
   LEXCH  = PE                                                                  
   EATOM  =   103.0669 eV,    7.5752 Ry                                         
                                                                                
   TITEL  = PAW_PBE Si 05Jan2001                                                
   LULTRA =        F    use ultrasoft PP ?                                      
   IUNSCR =        1    unscreen: 0-lin 1-nonlin 2-no                           
   RPACOR =    1.500    partial core radius                                     
   POMASS =   28.085; ZVAL   =    4.000    mass and valenz                      
   RCORE  =    1.900    outmost cutoff radius                                   
   RWIGS  =    2.480; RWIGS  =    1.312    wigner-seitz radius (au A)           
   ENMAX  =  245.345; ENMIN  =  184.009 eV                                      
   ICORE  =        2    local potential                                         
   LCOR   =        T    correct aug charges                                     
   LPAW   =        T    paw PP                                                  
   EAUG   =  322.069                                                            
   DEXC   =    0.000                                                            
   RMAX   =    1.950    core radius for proj-oper                               
   RAUG   =    1.300    factor for augmentation sphere                          
   RDEP   =    1.993    radius for radial grids                                 
   RDEPT  =    1.837    core radius for aug-charge                              
                                                                                
   Atomic configuration                                                         
    6 entries                                                                   
     n  l   j            E        occ.                                          
     1  0  0.50     -1785.8828   2.0000                                         
     2  0  0.50      -139.4969   2.0000                                         
     2  1  1.50       -95.5546   6.0000                                         
     3  0  0.50       -10.8127   2.0000                                         
     3  1  0.50        -4.0811   2.0000                                         
     3  2  1.50        -4.0817   0.0000                                         
   Description                                                                  
     l       E           TYP  RCUT    TYP  RCUT                                 
     0    -10.8127223     23  1.900                                             
     0     -7.6451159     23  1.900                                             
     1     -4.0811372     23  1.900                                             
     1      2.4879257     23  1.900                                             
     2     -4.0817478      7  1.900                                             
  local pseudopotential read in
  partial core-charges read in
  partial kinetic energy density read in
  atomic valenz-charges read in
  non local Contribution for L=           0  read in
    real space projection operators read in
  non local Contribution for L=           0  read in
    real space projection operators read in
  non local Contribution for L=           1  read in
    real space projection operators read in
  non local Contribution for L=           1  read in
    real space projection operators read in
    PAW grid and wavefunctions read in
 
   number of l-projection  operators is LMAX  =           4
   number of lm-projection operators is LMMAX =           8
 

 ----------------------------------------------------------------------------- 
|                                                                             |
|  ADVICE TO THIS USER RUNNING 'VASP/VAMP'   (HEAR YOUR MASTER'S VOICE ...):  |
|                                                                             |
|      You have a (more or less) 'small supercell' and for smaller cells      |
|      it is recommended  to use the reciprocal-space projection scheme!      |
|      The real space optimization is not  efficient for small cells and it   |
|      is also less accurate ...                                              |
|      Therefore set LREAL=.FALSE. in the  INCAR file                         |
|                                                                             |
 ----------------------------------------------------------------------------- 

 Optimization of the real space projectors (new method)

 maximal supplied QI-value         = 19.84
 optimisation between [QCUT,QGAM] = [ 11.51, 23.22] = [ 37.09,150.92] Ry 
 Optimized for a Real-space Cutoff    1.21 Angstroem

   l    n(q)    QCUT    max X(q) W(low)/X(q) W(high)/X(q)  e(spline) 
   0      8    11.508   159.560    0.71E-04    0.15E-03    0.51E-07
   0      8    11.508   115.863    0.70E-04    0.15E-03    0.51E-07
   1      8    11.508    88.339    0.16E-03    0.38E-04    0.82E-07
   1      8    11.508    48.592    0.15E-03    0.36E-04    0.79E-07
  PAW_PBE Si 05Jan2001                  :
 energy of atom  1       EATOM= -103.0669
 kinetic energy error for atom=    0.0005 (will be added to EATOM!!)
 
 
 POSCAR: si2                                     
  positions in direct lattice
  velocities in cartesian coordinates
 exchange correlation table for  LEXCH =        8
   RHO(1)=    0.500       N(1)  =     2000
   RHO(2)=  100.500       N(2)  =     4000
 


--------------------------------------------------------------------------------------------------------


 ion  position               nearest neighbor table
   1  0.750  0.750  0.750-   2 2.34   2 2.34   2 2.34   2 2.34
   2  0.500  0.500  0.500-   1 2.34   1 2.34   1 2.34   1 2.34
 
  LATTYP: Found a face centered cubic cell.
 ALAT       =     5.4113990728
  
  Lattice vectors:
  
 A1 = (   3.8264369801,   0.0000000000,   0.0000000000)
 A2 = (   1.9132184900,   3.3137916307,  -0.0000000000)
 A3 = (   1.9132184900,   1.1045972103,   3.1242727114)


Analysis of symmetry for initial positions (statically):
=====================================================================
 Subroutine PRICEL returns:
 Original cell was already a primitive cell.
 

 Routine SETGRP: Setting up the symmetry group for a 
 face centered cubic supercell.


 Subroutine GETGRP returns: Found 48 space group operations
 (whereof 24 operations were pure point group operations)
 out of a pool of 48 trial point group operations.


The static configuration has the point symmetry T_d .
 The point group associated with its full space group is O_h .


Analysis of symmetry for dynamics (positions and initial velocities):
=====================================================================
 Subroutine PRICEL returns:
 Original cell was already a primitive cell.
 

 Routine SETGRP: Setting up the symmetry group for a 
 face centered cubic supercell.


 Subroutine GETGRP returns: Found 48 space group operations
 (whereof 24 operations were pure point group operations)
 out of a pool of 48 trial point group operations.


The dynamic configuration has the point symmetry T_d .
 The point group associated with its full space group is O_h .


Analysis of structural, dynamic, and magnetic symmetry:
=====================================================================
 Subroutine PRICEL returns:
 Original cell was already a primitive cell.
 

 Routine SETGRP: Setting up the symmetry group for a 
 face centered cubic supercell.


 Subroutine GETGRP returns: Found 48 space group operations
 (whereof 24 operations were pure point group operations)
 out of a pool of 48 trial point group operations.


The magnetic configuration has the point symmetry T_d .
 The point group associated with its full space group is O_h .


 Subroutine INISYM returns: Found 48 space group operations
 (whereof 24 operations are pure point group operations),
 and found     1 'primitive' translations

 
 
 KPOINTS: Line_mode KPOINTS file                  
  interpolating k-points between supplied coordinates
  k-points in reciprocal lattice
Space group operators:
 irot       det(A)        alpha          n_x          n_y          n_z        tau_x        tau_y        tau_z
    1     1.000000     0.000001     1.000000     0.000000     0.000000     0.000000     0.000000     0.000000
    2     1.000000   120.000000    -0.816497    -0.471405    -0.333333     0.000000     0.000000     0.000000
    3     1.000000   120.000000     0.816497     0.471405     0.333333     0.000000     0.000000     0.000000
    4    -1.000000    90.000000    -0.707107    -0.408248     0.577350     0.000000     0.000000     0.000000
    5    -1.000000   180.000000     1.000000    -0.000000     0.000000     0.000000     0.000000     0.000000
    6    -1.000000    90.000000     0.707107    -0.408248     0.577350     0.000000     0.000000     0.000000
    7     1.000000   180.000000     0.707107     0.408248    -0.577350     0.000000     0.000000     0.000000
    8     1.000000   120.000000     0.816497    -0.471405    -0.333333     0.000000     0.000000     0.000000
    9     1.000000   120.000000     0.000000    -0.942809     0.333333     0.000000     0.000000     0.000000
   10    -1.000000    90.000000     0.707107     0.408248    -0.577350     0.000000     0.000000     0.000000
   11    -1.000000    90.000000    -0.000000    -0.816497    -0.577350     0.000000     0.000000     0.000000
   12    -1.000000   179.999999     0.500000     0.866025    -0.000000     0.000000     0.000000     0.000000
   13     1.000000   120.000000     0.000000     0.942809    -0.333333     0.000000     0.000000     0.000000
   14     1.000000   120.000000     0.000000    -0.000000    -1.000000     0.000000     0.000000     0.000000
   15     1.000000   179.999999     0.000000    -0.816497    -0.577350     0.000000     0.000000     0.000000
   16    -1.000000    90.000000    -0.707107     0.408248    -0.577350     0.000000     0.000000     0.000000
   17    -1.000000   180.000000     0.500000     0.288675     0.816497     0.000000     0.000000     0.000000
   18    -1.000000    90.000000    -0.000000     0.816497     0.577350     0.000000     0.000000     0.000000
   19     1.000000   120.000000    -0.816497     0.471405     0.333333     0.000000     0.000000     0.000000
   20     1.000000   180.000000    -0.707107     0.408248    -0.577350     0.000000     0.000000     0.000000
   21     1.000000   120.000000     0.000000     0.000000     1.000000     0.000000     0.000000     0.000000
   22    -1.000000   180.000000     0.000000    -0.577350     0.816497     0.000000     0.000000     0.000000
   23    -1.000000   180.000000    -0.500000     0.866025    -0.000000     0.000000     0.000000     0.000000
   24    -1.000000   180.000000    -0.500000     0.288675     0.816497     0.000000     0.000000     0.000000
   25    -1.000000     0.000001     1.000000     0.000000     0.000000     0.250000     0.250000     0.250000
   26    -1.000000   120.000000    -0.816497    -0.471405    -0.333333     0.250000     0.250000     0.250000
   27    -1.000000   120.000000     0.816497     0.471405     0.333333     0.250000     0.250000     0.250000
   28     1.000000    90.000000    -0.707107    -0.408248     0.577350     0.250000     0.250000     0.250000
   29     1.000000   180.000000     1.000000    -0.000000     0.000000     0.250000     0.250000     0.250000
   30     1.000000    90.000000     0.707107    -0.408248     0.577350     0.250000     0.250000     0.250000
   31    -1.000000   180.000000     0.707107     0.408248    -0.577350     0.250000     0.250000     0.250000
   32    -1.000000   120.000000     0.816497    -0.471405    -0.333333     0.250000     0.250000     0.250000
   33    -1.000000   120.000000     0.000000    -0.942809     0.333333     0.250000     0.250000     0.250000
   34     1.000000    90.000000     0.707107     0.408248    -0.577350     0.250000     0.250000     0.250000
   35     1.000000    90.000000    -0.000000    -0.816497    -0.577350     0.250000     0.250000     0.250000
   36     1.000000   179.999999     0.500000     0.866025    -0.000000     0.250000     0.250000     0.250000
   37    -1.000000   120.000000     0.000000     0.942809    -0.333333     0.250000     0.250000     0.250000
   38    -1.000000   120.000000     0.000000    -0.000000    -1.000000     0.250000     0.250000     0.250000
   39    -1.000000   179.999999     0.000000    -0.816497    -0.577350     0.250000     0.250000     0.250000
   40     1.000000    90.000000    -0.707107     0.408248    -0.577350     0.250000     0.250000     0.250000
   41     1.000000   180.000000     0.500000     0.288675     0.816497     0.250000     0.250000     0.250000
   42     1.000000    90.000000    -0.000000     0.816497     0.577350     0.250000     0.250000     0.250000
   43    -1.000000   120.000000    -0.816497     0.471405     0.333333     0.250000     0.250000     0.250000
   44    -1.000000   180.000000    -0.707107     0.408248    -0.577350     0.250000     0.250000     0.250000
   45    -1.000000   120.000000     0.000000     0.000000     1.000000     0.250000     0.250000     0.250000
   46     1.000000   180.000000     0.000000    -0.577350     0.816497     0.250000     0.250000     0.250000
   47     1.000000   180.000000    -0.500000     0.866025    -0.000000     0.250000     0.250000     0.250000
   48     1.000000   180.000000    -0.500000     0.288675     0.816497     0.250000     0.250000     0.250000


--------------------------------------------------------------------------------------------------------




 Dimension of arrays:
   k-points           NKPTS =    400   k-points in BZ     NKDIM =    400   number of bands    NBANDS=     36
   number of dos      NEDOS =    301   number of ions     NIONS =      2
   non local maximal  LDIM  =      4   non local SUM 2l+1 LMDIM =      8
   total plane-waves  NPLWV =  21952
   max r-space proj   IRMAX =   4170   max aug-charges    IRDMAX=  18724
   dimension x,y,z NGX =    28 NGY =   28 NGZ =   28
   dimension x,y,z NGXF=    56 NGYF=   56 NGZF=   56
   support grid    NGXF=    56 NGYF=   56 NGZF=   56
   ions per type =               2
 NGX,Y,Z   is equivalent  to a cutoff of  12.17, 12.17, 12.17 a.u.
 NGXF,Y,Z  is equivalent  to a cutoff of  24.33, 24.33, 24.33 a.u.


 I would recommend the setting:
   dimension x,y,z NGX =    28 NGY =   28 NGZ =   28
 SYSTEM =  unknown system                          
 POSCAR =  si2                                     

 Startparameter for this run:
   NWRITE =      2    write-flag & timer
   PREC   = accura    normal or accurate (medium, high low for compatibility)
   ISTART =      0    job   : 0-new  1-cont  2-samecut
   ICHARG =     11    charge: 1-file 2-atom 10-const
   ISPIN  =      2    spin polarized calculation?
   LNONCOLLINEAR =      F non collinear calculations
   LSORBIT =      F    spin-orbit coupling
   INIWAV =      1    electr: 0-lowe 1-rand  2-diag
   LASPH  =      F    aspherical Exc in radial PAW
   METAGGA=      F    non-selfconsistent MetaGGA calc.

 Electronic Relaxation 1
   ENCUT  =  520.0 eV  38.22 Ry    6.18 a.u.   7.11  7.11  7.11*2*pi/ulx,y,z
   ENINI  =  520.0     initial cutoff
   ENAUG  =  322.1 eV  augmentation charge cutoff
   NELM   =     60;   NELMIN=  2; NELMDL= -5     # of ELM steps 
   EDIFF  = 0.1E-04   stopping-criterion for ELM
   LREAL  =      T    real-space projection
   NLSPLINE    = F    spline interpolate recip. space projectors
   LCOMPAT=      F    compatible to vasp.4.4
   GGA_COMPAT  = T    GGA compatible to vasp.4.4-vasp.4.6
   LMAXPAW     = -100 max onsite density
   LMAXMIX     =    2 max onsite mixed and CHGCAR
   VOSKOWN=      0    Vosko Wilk Nusair interpolation
   ROPT   =   -0.00025
 Ionic relaxation
   EDIFFG = -.1E-01   stopping-criterion for IOM
   NSW    =      0    number of steps for IOM
   NBLOCK =      1;   KBLOCK =      1    inner block; outer block 
   IBRION =     -1    ionic relax: 0-MD 1-quasi-New 2-CG
   NFREE  =      0    steps in history (QN), initial steepest desc. (CG)
   ISIF   =      3    stress and relaxation
   IWAVPR =     10    prediction:  0-non 1-charg 2-wave 3-comb
   ISYM   =      2    0-nonsym 1-usesym 2-fastsym
   LCORR  =      T    Harris-Foulkes like correction to forces

   POTIM  = 0.5000    time-step for ionic-motion
   TEIN   =    0.0    initial temperature
   TEBEG  =    0.0;   TEEND  =   0.0 temperature during run
   SMASS  =  -3.00    Nose mass-parameter (am)
   estimated Nose-frequenzy (Omega)   =  0.10E-29 period in steps =****** mass=  -0.335E-27a.u.
   SCALEE = 1.0000    scale energy and forces
   NPACO  =    256;   APACO  = 16.0  distance and # of slots for P.C.
   PSTRESS=    0.0 pullay stress

  Mass of Ions in am
   POMASS =  28.09
  Ionic Valenz
   ZVAL   =   4.00
  Atomic Wigner-Seitz radii
   RWIGS  =  -1.00
  virtual crystal weights 
   VCA    =   1.00
   NELECT =       8.0000    total number of electrons
   NUPDOWN=      -1.0000    fix difference up-down

 DOS related values:
   EMIN   =  10.00;   EMAX   =-10.00  energy-range for DOS
   EFERMI =   0.00
   ISMEAR =     0;   SIGMA  =   0.05  broadening in eV -4-tet -1-fermi 0-gaus

 Electronic relaxation 2 (details)
   IALGO  =     68    algorithm
   LDIAG  =      T    sub-space diagonalisation (order eigenvalues)
   LSUBROT=      F    optimize rotation matrix (better conditioning)
   TURBO    =      0    0=normal 1=particle mesh
   IRESTART =      0    0=no restart 2=restart with 2 vectors
   NREBOOT  =      0    no. of reboots
   NMIN     =      0    reboot dimension
   EREF     =   0.00    reference energy to select bands
   IMIX   =      4    mixing-type and parameters
     AMIX     =   0.40;   BMIX     =  1.00
     AMIX_MAG =   1.60;   BMIX_MAG =  1.00
     AMIN     =   0.10
     WC   =   100.;   INIMIX=   1;  MIXPRE=   1;  MAXMIX= -45

 Intra band minimization:
   WEIMIN = 0.0000     energy-eigenvalue tresh-hold
   EBREAK =  0.69E-07  absolut break condition
   DEPER  =   0.30     relativ break condition  

   TIME   =   0.40     timestep for ELM

  volume/ion in A,a.u.               =      19.81       133.67
  Fermi-wavevector in a.u.,A,eV,Ry     =   0.960466  1.815017 12.551302  0.922495
  Thomas-Fermi vector in A             =   2.089753
 
 Write flags
   LWAVE  =      F    write WAVECAR
   LCHARG =      T    write CHGCAR
   LVTOT  =      F    write LOCPOT, total local potential
   LVHAR  =      F    write LOCPOT, Hartree potential only
   LELF   =      F    write electronic localiz. function (ELF)
   LORBIT =     11    0 simple, 1 ext, 2 COOP (PROOUT)


 Dipole corrections
   LMONO  =      F    monopole corrections only (constant potential shift)
   LDIPOL =      F    correct potential (dipole corrections)
   IDIPOL =      0    1-x, 2-y, 3-z, 4-all directions 
   EPSILON=  1.0000000 bulk dielectric constant

 Exchange correlation treatment:
   GGA     =    --    GGA type
   LEXCH   =     8    internal setting for exchange type
   VOSKOWN=      0    Vosko Wilk Nusair interpolation
   LHFCALC =     F    Hartree Fock is set to
   LHFONE  =     F    Hartree Fock one center treatment
   AEXX    =    0.0000 exact exchange contribution

 Linear response parameters
   LEPSILON=     F    determine dielectric tensor
   LRPA    =     F    only Hartree local field effects (RPA)
   LNABLA  =     F    use nabla operator in PAW spheres
   LVEL    =     F    velocity operator in full k-point grid
   LINTERFAST=   F  fast interpolation
   KINTER  =     0    interpolate to denser k-point grid
   CSHIFT  =0.1000    complex shift for real part using Kramers Kronig
   OMEGAMAX=  -1.0    maximum frequency
   DEG_THRESHOLD= 0.2000000E-02 threshold for treating states as degnerate
   RTIME   =    0.100 relaxation time in fs

 Orbital magnetization related:
   ORBITALMAG=     F  switch on orbital magnetization
   LCHIMAG   =     F  perturbation theory with respect to B field
   DQ        =  0.001000  dq finite difference perturbation B field



--------------------------------------------------------------------------------------------------------


 Static calculation
 charge density and potential remain constant during run
 spin polarized calculation
 RMM-DIIS sequential band-by-band and
  variant of blocked Davidson during initial phase
 perform sub-space diagonalisation
    before iterative eigenvector-optimisation
 no mixing
 using additional bands           32
 real space projection scheme for non local part
 use partial core corrections
 calculate Harris-corrections to forces 
   (improved forces if not selfconsistent)
 use gradient corrections 
 WARNING: stress and forces are not correct
  (second derivative of E(xc) not defined)
 use of overlap-Matrix (Vanderbilt PP)
 Gauss-broadening in eV      SIGMA  =   0.05


--------------------------------------------------------------------------------------------------------


  energy-cutoff  :      520.00
  volume of cell :       39.62
      direct lattice vectors                 reciprocal lattice vectors
     3.826436980  0.000000000  0.000000000     0.261339728 -0.150884562 -0.106691497
     1.913218490  3.313791631 -0.000000000     0.000000000  0.301769125 -0.106691497
     1.913218490  1.104597210  3.124272711     0.000000000  0.000000000  0.320074492

  length of vectors
     3.826436980  3.826436980  3.826436980     0.320074492  0.320074492  0.320074492


 
 k-points in units of 2pi/SCALE and weight: Line_mode KPOINTS file                  
   0.00000000  0.00000000  0.00000000       0.003
   0.00335051 -0.00193442  0.00273568       0.003
   0.00670102 -0.00386883  0.00547136       0.003
   0.01005153 -0.00580325  0.00820704       0.003
   0.01340204 -0.00773767  0.01094272       0.003
   0.01675255 -0.00967209  0.01367840       0.003
   0.02010306 -0.01160650  0.01641408       0.003
   0.02345357 -0.01354092  0.01914976       0.003
   0.02680407 -0.01547534  0.02188544       0.003
   0.03015458 -0.01740976  0.02462111       0.003
   0.03350509 -0.01934417  0.02735679       0.003
   0.03685560 -0.02127859  0.03009247       0.003
   0.04020611 -0.02321301  0.03282815       0.003
   0.04355662 -0.02514743  0.03556383       0.003
   0.04690713 -0.02708184  0.03829951       0.003
   0.05025764 -0.02901626  0.04103519       0.003
   0.05360815 -0.03095068  0.04377087       0.003
   0.05695866 -0.03288510  0.04650655       0.003
   0.06030917 -0.03481951  0.04924223       0.003
   0.06365968 -0.03675393  0.05197791       0.003
   0.06701019 -0.03868835  0.05471359       0.003
   0.07036070 -0.04062277  0.05744927       0.003
   0.07371121 -0.04255718  0.06018495       0.003
   0.07706171 -0.04449160  0.06292063       0.003
   0.08041222 -0.04642602  0.06565631       0.003
   0.08376273 -0.04836044  0.06839199       0.003
   0.08711324 -0.05029485  0.07112766       0.003
   0.09046375 -0.05222927  0.07386334       0.003
   0.09381426 -0.05416369  0.07659902       0.003
   0.09716477 -0.05609811  0.07933470       0.003
   0.10051528 -0.05803252  0.08207038       0.003
   0.10386579 -0.05996694  0.08480606       0.003
   0.10721630 -0.06190136  0.08754174       0.003
   0.11056681 -0.06383578  0.09027742       0.003
   0.11391732 -0.06577019  0.09301310       0.003
   0.11726783 -0.06770461  0.09574878       0.003
   0.12061834 -0.06963903  0.09848446       0.003
   0.12396885 -0.07157345  0.10122014       0.003
   0.12731935 -0.07350786  0.10395582       0.003
   0.13066986 -0.07544228  0.10669150       0.003
   0.13066986 -0.07544228  0.10669150       0.003
   0.13066986 -0.07350786  0.10805934       0.003
   0.13066986 -0.07157345  0.10942718       0.003
   0.13066986 -0.06963903  0.11079502       0.003
   0.13066986 -0.06770461  0.11216286       0.003
   0.13066986 -0.06577019  0.11353070       0.003
   0.13066986 -0.06383578  0.11489854       0.003
   0.13066986 -0.06190136  0.11626638       0.003
   0.13066986 -0.05996694  0.11763421       0.003
   0.13066986 -0.05803252  0.11900205       0.003
   0.13066986 -0.05609811  0.12036989       0.003
   0.13066986 -0.05416369  0.12173773       0.003
   0.13066986 -0.05222927  0.12310557       0.003
   0.13066986 -0.05029485  0.12447341       0.003
   0.13066986 -0.04836044  0.12584125       0.003
   0.13066986 -0.04642602  0.12720909       0.003
   0.13066986 -0.04449160  0.12857693       0.003
   0.13066986 -0.04255718  0.12994477       0.003
   0.13066986 -0.04062277  0.13131261       0.003
   0.13066986 -0.03868835  0.13268045       0.003
   0.13066986 -0.03675393  0.13404829       0.003
   0.13066986 -0.03481951  0.13541613       0.003
   0.13066986 -0.03288510  0.13678397       0.003
   0.13066986 -0.03095068  0.13815181       0.003
   0.13066986 -0.02901626  0.13951965       0.003
   0.13066986 -0.02708184  0.14088749       0.003
   0.13066986 -0.02514743  0.14225533       0.003
   0.13066986 -0.02321301  0.14362317       0.003
   0.13066986 -0.02127859  0.14499101       0.003
   0.13066986 -0.01934417  0.14635885       0.003
   0.13066986 -0.01740976  0.14772669       0.003
   0.13066986 -0.01547534  0.14909453       0.003
   0.13066986 -0.01354092  0.15046237       0.003
   0.13066986 -0.01160650  0.15183021       0.003
   0.13066986 -0.00967209  0.15319805       0.003
   0.13066986 -0.00773767  0.15456589       0.003
   0.13066986 -0.00580325  0.15593373       0.003
   0.13066986 -0.00386883  0.15730157       0.003
   0.13066986 -0.00193442  0.15866941       0.003
   0.13066986  0.00000000  0.16003725       0.003
   0.13066986  0.00000000  0.16003725       0.003
   0.12983224  0.00145081  0.16003725       0.003
   0.12899461  0.00290163  0.16003725       0.003
   0.12815698  0.00435244  0.16003725       0.003
   0.12731935  0.00580325  0.16003725       0.003
   0.12648173  0.00725407  0.16003725       0.003
   0.12564410  0.00870488  0.16003725       0.003
   0.12480647  0.01015569  0.16003725       0.003
   0.12396885  0.01160650  0.16003725       0.003
   0.12313122  0.01305732  0.16003725       0.003
   0.12229359  0.01450813  0.16003725       0.003
   0.12145596  0.01595894  0.16003725       0.003
   0.12061834  0.01740976  0.16003725       0.003
   0.11978071  0.01886057  0.16003725       0.003
   0.11894308  0.02031138  0.16003725       0.003
   0.11810545  0.02176220  0.16003725       0.003
   0.11726783  0.02321301  0.16003725       0.003
   0.11643020  0.02466382  0.16003725       0.003
   0.11559257  0.02611464  0.16003725       0.003
   0.11475494  0.02756545  0.16003725       0.003
   0.11391732  0.02901626  0.16003725       0.003
   0.11307969  0.03046708  0.16003725       0.003
   0.11224206  0.03191789  0.16003725       0.003
   0.11140444  0.03336870  0.16003725       0.003
   0.11056681  0.03481951  0.16003725       0.003
   0.10972918  0.03627033  0.16003725       0.003
   0.10889155  0.03772114  0.16003725       0.003
   0.10805393  0.03917195  0.16003725       0.003
   0.10721630  0.04062277  0.16003725       0.003
   0.10637867  0.04207358  0.16003725       0.003
   0.10554104  0.04352439  0.16003725       0.003
   0.10470342  0.04497521  0.16003725       0.003
   0.10386579  0.04642602  0.16003725       0.003
   0.10302816  0.04787683  0.16003725       0.003
   0.10219053  0.04932765  0.16003725       0.003
   0.10135291  0.05077846  0.16003725       0.003
   0.10051528  0.05222927  0.16003725       0.003
   0.09967765  0.05368008  0.16003725       0.003
   0.09884003  0.05513090  0.16003725       0.003
   0.09800240  0.05658171  0.16003725       0.003
   0.09800240  0.05658171  0.16003725       0.003
   0.09548952  0.05513090  0.15593373       0.003
   0.09297663  0.05368008  0.15183021       0.003
   0.09046375  0.05222927  0.14772669       0.003
   0.08795087  0.05077846  0.14362317       0.003
   0.08543799  0.04932765  0.13951965       0.003
   0.08292511  0.04787683  0.13541613       0.003
   0.08041222  0.04642602  0.13131261       0.003
   0.07789934  0.04497521  0.12720909       0.003
   0.07538646  0.04352439  0.12310557       0.003
   0.07287358  0.04207358  0.11900205       0.003
   0.07036070  0.04062277  0.11489854       0.003
   0.06784781  0.03917195  0.11079502       0.003
   0.06533493  0.03772114  0.10669150       0.003
   0.06282205  0.03627033  0.10258798       0.003
   0.06030917  0.03481951  0.09848446       0.003
   0.05779629  0.03336870  0.09438094       0.003
   0.05528340  0.03191789  0.09027742       0.003
   0.05277052  0.03046708  0.08617390       0.003
   0.05025764  0.02901626  0.08207038       0.003
   0.04774476  0.02756545  0.07796686       0.003
   0.04523188  0.02611464  0.07386334       0.003
   0.04271899  0.02466382  0.06975983       0.003
   0.04020611  0.02321301  0.06565631       0.003
   0.03769323  0.02176220  0.06155279       0.003
   0.03518035  0.02031138  0.05744927       0.003
   0.03266747  0.01886057  0.05334575       0.003
   0.03015458  0.01740976  0.04924223       0.003
   0.02764170  0.01595894  0.04513871       0.003
   0.02512882  0.01450813  0.04103519       0.003
   0.02261594  0.01305732  0.03693167       0.003
   0.02010306  0.01160650  0.03282815       0.003
   0.01759017  0.01015569  0.02872463       0.003
   0.01507729  0.00870488  0.02462111       0.003
   0.01256441  0.00725407  0.02051760       0.003
   0.01005153  0.00580325  0.01641408       0.003
   0.00753865  0.00435244  0.01231056       0.003
   0.00502576  0.00290163  0.00820704       0.003
   0.00251288  0.00145081  0.00410352       0.003
   0.00000000  0.00000000  0.00000000       0.003
   0.00000000  0.00000000  0.00000000       0.003
   0.00335051  0.00193442  0.00136784       0.003
   0.00670102  0.00386883  0.00273568       0.003
   0.01005153  0.00580325  0.00410352       0.003
   0.01340204  0.00773767  0.00547136       0.003
   0.01675255  0.00967209  0.00683920       0.003
   0.02010306  0.01160650  0.00820704       0.003
   0.02345357  0.01354092  0.00957488       0.003
   0.02680407  0.01547534  0.01094272       0.003
   0.03015458  0.01740976  0.01231056       0.003
   0.03350509  0.01934417  0.01367840       0.003
   0.03685560  0.02127859  0.01504624       0.003
   0.04020611  0.02321301  0.01641408       0.003
   0.04355662  0.02514743  0.01778192       0.003
   0.04690713  0.02708184  0.01914976       0.003
   0.05025764  0.02901626  0.02051760       0.003
   0.05360815  0.03095068  0.02188544       0.003
   0.05695866  0.03288510  0.02325328       0.003
   0.06030917  0.03481951  0.02462111       0.003
   0.06365968  0.03675393  0.02598895       0.003
   0.06701019  0.03868835  0.02735679       0.003
   0.07036070  0.04062277  0.02872463       0.003
   0.07371121  0.04255718  0.03009247       0.003
   0.07706171  0.04449160  0.03146031       0.003
   0.08041222  0.04642602  0.03282815       0.003
   0.08376273  0.04836044  0.03419599       0.003
   0.08711324  0.05029485  0.03556383       0.003
   0.09046375  0.05222927  0.03693167       0.003
   0.09381426  0.05416369  0.03829951       0.003
   0.09716477  0.05609811  0.03966735       0.003
   0.10051528  0.05803252  0.04103519       0.003
   0.10386579  0.05996694  0.04240303       0.003
   0.10721630  0.06190136  0.04377087       0.003
   0.11056681  0.06383578  0.04513871       0.003
   0.11391732  0.06577019  0.04650655       0.003
   0.11726783  0.06770461  0.04787439       0.003
   0.12061834  0.06963903  0.04924223       0.003
   0.12396885  0.07157345  0.05061007       0.003
   0.12731935  0.07350786  0.05197791       0.003
   0.13066986  0.07544228  0.05334575       0.003
   0.13066986  0.07544228  0.05334575       0.003
   0.13150749  0.07302426  0.05471359       0.003
   0.13234512  0.07060624  0.05608143       0.003
   0.13318275  0.06818822  0.05744927       0.003
   0.13402037  0.06577019  0.05881711       0.003
   0.13485800  0.06335217  0.06018495       0.003
   0.13569563  0.06093415  0.06155279       0.003
   0.13653326  0.05851613  0.06292063       0.003
   0.13737088  0.05609811  0.06428847       0.003
   0.13820851  0.05368008  0.06565631       0.003
   0.13904614  0.05126206  0.06702415       0.003
   0.13988376  0.04884404  0.06839199       0.003
   0.14072139  0.04642602  0.06975983       0.003
   0.14155902  0.04400800  0.07112766       0.003
   0.14239665  0.04158998  0.07249550       0.003
   0.14323427  0.03917195  0.07386334       0.003
   0.14407190  0.03675393  0.07523118       0.003
   0.14490953  0.03433591  0.07659902       0.003
   0.14574716  0.03191789  0.07796686       0.003
   0.14658478  0.02949987  0.07933470       0.003
   0.14742241  0.02708184  0.08070254       0.003
   0.14826004  0.02466382  0.08207038       0.003
   0.14909767  0.02224580  0.08343822       0.003
   0.14993529  0.01982778  0.08480606       0.003
   0.15077292  0.01740976  0.08617390       0.003
   0.15161055  0.01499174  0.08754174       0.003
   0.15244817  0.01257371  0.08890958       0.003
   0.15328580  0.01015569  0.09027742       0.003
   0.15412343  0.00773767  0.09164526       0.003
   0.15496106  0.00531965  0.09301310       0.003
   0.15579868  0.00290163  0.09438094       0.003
   0.15663631  0.00048360  0.09574878       0.003
   0.15747394 -0.00193442  0.09711662       0.003
   0.15831157 -0.00435244  0.09848446       0.003
   0.15914919 -0.00677046  0.09985230       0.003
   0.15998682 -0.00918848  0.10122014       0.003
   0.16082445 -0.01160650  0.10258798       0.003
   0.16166208 -0.01402453  0.10395582       0.003
   0.16249970 -0.01644255  0.10532366       0.003
   0.16333733 -0.01886057  0.10669150       0.003
   0.16333733 -0.01886057  0.10669150       0.003
   0.16249970 -0.01837697  0.10805934       0.003
   0.16166208 -0.01789336  0.10942718       0.003
   0.16082445 -0.01740976  0.11079502       0.003
   0.15998682 -0.01692615  0.11216286       0.003
   0.15914919 -0.01644255  0.11353070       0.003
   0.15831157 -0.01595894  0.11489854       0.003
   0.15747394 -0.01547534  0.11626638       0.003
   0.15663631 -0.01499174  0.11763421       0.003
   0.15579868 -0.01450813  0.11900205       0.003
   0.15496106 -0.01402453  0.12036989       0.003
   0.15412343 -0.01354092  0.12173773       0.003
   0.15328580 -0.01305732  0.12310557       0.003
   0.15244817 -0.01257371  0.12447341       0.003
   0.15161055 -0.01209011  0.12584125       0.003
   0.15077292 -0.01160650  0.12720909       0.003
   0.14993529 -0.01112290  0.12857693       0.003
   0.14909767 -0.01063930  0.12994477       0.003
   0.14826004 -0.01015569  0.13131261       0.003
   0.14742241 -0.00967209  0.13268045       0.003
   0.14658478 -0.00918848  0.13404829       0.003
   0.14574716 -0.00870488  0.13541613       0.003
   0.14490953 -0.00822127  0.13678397       0.003
   0.14407190 -0.00773767  0.13815181       0.003
   0.14323427 -0.00725407  0.13951965       0.003
   0.14239665 -0.00677046  0.14088749       0.003
   0.14155902 -0.00628686  0.14225533       0.003
   0.14072139 -0.00580325  0.14362317       0.003
   0.13988376 -0.00531965  0.14499101       0.003
   0.13904614 -0.00483604  0.14635885       0.003
   0.13820851 -0.00435244  0.14772669       0.003
   0.13737088 -0.00386883  0.14909453       0.003
   0.13653326 -0.00338523  0.15046237       0.003
   0.13569563 -0.00290163  0.15183021       0.003
   0.13485800 -0.00241802  0.15319805       0.003
   0.13402037 -0.00193442  0.15456589       0.003
   0.13318275 -0.00145081  0.15593373       0.003
   0.13234512 -0.00096721  0.15730157       0.003
   0.13150749 -0.00048360  0.15866941       0.003
   0.13066986  0.00000000  0.16003725       0.003
   0.13066986  0.00000000  0.16003725       0.003
   0.13066986  0.00193442  0.15730157       0.003
   0.13066986  0.00386883  0.15456589       0.003
   0.13066986  0.00580325  0.15183021       0.003
   0.13066986  0.00773767  0.14909453       0.003
   0.13066986  0.00967209  0.14635885       0.003
   0.13066986  0.01160650  0.14362317       0.003
   0.13066986  0.01354092  0.14088749       0.003
   0.13066986  0.01547534  0.13815181       0.003
   0.13066986  0.01740976  0.13541613       0.003
   0.13066986  0.01934417  0.13268045       0.003
   0.13066986  0.02127859  0.12994477       0.003
   0.13066986  0.02321301  0.12720909       0.003
   0.13066986  0.02514743  0.12447341       0.003
   0.13066986  0.02708184  0.12173773       0.003
   0.13066986  0.02901626  0.11900205       0.003
   0.13066986  0.03095068  0.11626638       0.003
   0.13066986  0.03288510  0.11353070       0.003
   0.13066986  0.03481951  0.11079502       0.003
   0.13066986  0.03675393  0.10805934       0.003
   0.13066986  0.03868835  0.10532366       0.003
   0.13066986  0.04062277  0.10258798       0.003
   0.13066986  0.04255718  0.09985230       0.003
   0.13066986  0.04449160  0.09711662       0.003
   0.13066986  0.04642602  0.09438094       0.003
   0.13066986  0.04836044  0.09164526       0.003
   0.13066986  0.05029485  0.08890958       0.003
   0.13066986  0.05222927  0.08617390       0.003
   0.13066986  0.05416369  0.08343822       0.003
   0.13066986  0.05609811  0.08070254       0.003
   0.13066986  0.05803252  0.07796686       0.003
   0.13066986  0.05996694  0.07523118       0.003
   0.13066986  0.06190136  0.07249550       0.003
   0.13066986  0.06383578  0.06975983       0.003
   0.13066986  0.06577019  0.06702415       0.003
   0.13066986  0.06770461  0.06428847       0.003
   0.13066986  0.06963903  0.06155279       0.003
   0.13066986  0.07157345  0.05881711       0.003
   0.13066986  0.07350786  0.05608143       0.003
   0.13066986  0.07544228  0.05334575       0.003
   0.13066986  0.07544228  0.05334575       0.003
   0.12983224  0.07495868  0.05608143       0.003
   0.12899461  0.07447507  0.05881711       0.003
   0.12815698  0.07399147  0.06155279       0.003
   0.12731935  0.07350786  0.06428847       0.003
   0.12648173  0.07302426  0.06702415       0.003
   0.12564410  0.07254065  0.06975983       0.003
   0.12480647  0.07205705  0.07249550       0.003
   0.12396885  0.07157345  0.07523118       0.003
   0.12313122  0.07108984  0.07796686       0.003
   0.12229359  0.07060624  0.08070254       0.003
   0.12145596  0.07012263  0.08343822       0.003
   0.12061834  0.06963903  0.08617390       0.003
   0.11978071  0.06915542  0.08890958       0.003
   0.11894308  0.06867182  0.09164526       0.003
   0.11810545  0.06818822  0.09438094       0.003
   0.11726783  0.06770461  0.09711662       0.003
   0.11643020  0.06722101  0.09985230       0.003
   0.11559257  0.06673740  0.10258798       0.003
   0.11475494  0.06625380  0.10532366       0.003
   0.11391732  0.06577019  0.10805934       0.003
   0.11307969  0.06528659  0.11079502       0.003
   0.11224206  0.06480299  0.11353070       0.003
   0.11140444  0.06431938  0.11626638       0.003
   0.11056681  0.06383578  0.11900205       0.003
   0.10972918  0.06335217  0.12173773       0.003
   0.10889155  0.06286857  0.12447341       0.003
   0.10805393  0.06238496  0.12720909       0.003
   0.10721630  0.06190136  0.12994477       0.003
   0.10637867  0.06141775  0.13268045       0.003
   0.10554104  0.06093415  0.13541613       0.003
   0.10470342  0.06045055  0.13815181       0.003
   0.10386579  0.05996694  0.14088749       0.003
   0.10302816  0.05948334  0.14362317       0.003
   0.10219053  0.05899973  0.14635885       0.003
   0.10135291  0.05851613  0.14909453       0.003
   0.10051528  0.05803252  0.15183021       0.003
   0.09967765  0.05754892  0.15456589       0.003
   0.09884003  0.05706532  0.15730157       0.003
   0.09800240  0.05658171  0.16003725       0.003
   0.16333733 -0.01886057  0.10669150       0.003
   0.16249970 -0.02031138  0.10669150       0.003
   0.16166208 -0.02176220  0.10669150       0.003
   0.16082445 -0.02321301  0.10669150       0.003
   0.15998682 -0.02466382  0.10669150       0.003
   0.15914919 -0.02611464  0.10669150       0.003
   0.15831157 -0.02756545  0.10669150       0.003
   0.15747394 -0.02901626  0.10669150       0.003
   0.15663631 -0.03046708  0.10669150       0.003
   0.15579868 -0.03191789  0.10669150       0.003
   0.15496106 -0.03336870  0.10669150       0.003
   0.15412343 -0.03481951  0.10669150       0.003
   0.15328580 -0.03627033  0.10669150       0.003
   0.15244817 -0.03772114  0.10669150       0.003
   0.15161055 -0.03917195  0.10669150       0.003
   0.15077292 -0.04062277  0.10669150       0.003
   0.14993529 -0.04207358  0.10669150       0.003
   0.14909767 -0.04352439  0.10669150       0.003
   0.14826004 -0.04497521  0.10669150       0.003
   0.14742241 -0.04642602  0.10669150       0.003
   0.14658478 -0.04787683  0.10669150       0.003
   0.14574716 -0.04932765  0.10669150       0.003
   0.14490953 -0.05077846  0.10669150       0.003
   0.14407190 -0.05222927  0.10669150       0.003
   0.14323427 -0.05368008  0.10669150       0.003
   0.14239665 -0.05513090  0.10669150       0.003
   0.14155902 -0.05658171  0.10669150       0.003
   0.14072139 -0.05803252  0.10669150       0.003
   0.13988376 -0.05948334  0.10669150       0.003
   0.13904614 -0.06093415  0.10669150       0.003
   0.13820851 -0.06238496  0.10669150       0.003
   0.13737088 -0.06383578  0.10669150       0.003
   0.13653326 -0.06528659  0.10669150       0.003
   0.13569563 -0.06673740  0.10669150       0.003
   0.13485800 -0.06818822  0.10669150       0.003
   0.13402037 -0.06963903  0.10669150       0.003
   0.13318275 -0.07108984  0.10669150       0.003
   0.13234512 -0.07254065  0.10669150       0.003
   0.13150749 -0.07399147  0.10669150       0.003
   0.13066986 -0.07544228  0.10669150       0.003
 
 k-points in reciprocal lattice and weights: Line_mode KPOINTS file                  
   0.00000000  0.00000000  0.00000000       0.003
   0.01282051  0.00000000  0.01282051       0.003
   0.02564103  0.00000000  0.02564103       0.003
   0.03846154  0.00000000  0.03846154       0.003
   0.05128205  0.00000000  0.05128205       0.003
   0.06410256  0.00000000  0.06410256       0.003
   0.07692308  0.00000000  0.07692308       0.003
   0.08974359  0.00000000  0.08974359       0.003
   0.10256410  0.00000000  0.10256410       0.003
   0.11538462  0.00000000  0.11538462       0.003
   0.12820513  0.00000000  0.12820513       0.003
   0.14102564  0.00000000  0.14102564       0.003
   0.15384615  0.00000000  0.15384615       0.003
   0.16666667  0.00000000  0.16666667       0.003
   0.17948718  0.00000000  0.17948718       0.003
   0.19230769  0.00000000  0.19230769       0.003
   0.20512821  0.00000000  0.20512821       0.003
   0.21794872  0.00000000  0.21794872       0.003
   0.23076923  0.00000000  0.23076923       0.003
   0.24358974  0.00000000  0.24358974       0.003
   0.25641026  0.00000000  0.25641026       0.003
   0.26923077  0.00000000  0.26923077       0.003
   0.28205128  0.00000000  0.28205128       0.003
   0.29487179  0.00000000  0.29487179       0.003
   0.30769231  0.00000000  0.30769231       0.003
   0.32051282  0.00000000  0.32051282       0.003
   0.33333333  0.00000000  0.33333333       0.003
   0.34615385  0.00000000  0.34615385       0.003
   0.35897436  0.00000000  0.35897436       0.003
   0.37179487  0.00000000  0.37179487       0.003
   0.38461538  0.00000000  0.38461538       0.003
   0.39743590  0.00000000  0.39743590       0.003
   0.41025641  0.00000000  0.41025641       0.003
   0.42307692  0.00000000  0.42307692       0.003
   0.43589744  0.00000000  0.43589744       0.003
   0.44871795  0.00000000  0.44871795       0.003
   0.46153846  0.00000000  0.46153846       0.003
   0.47435897  0.00000000  0.47435897       0.003
   0.48717949  0.00000000  0.48717949       0.003
   0.50000000  0.00000000  0.50000000       0.003
   0.50000000  0.00000000  0.50000000       0.003
   0.50000000  0.00641026  0.50641026       0.003
   0.50000000  0.01282051  0.51282051       0.003
   0.50000000  0.01923077  0.51923077       0.003
   0.50000000  0.02564103  0.52564103       0.003
   0.50000000  0.03205128  0.53205128       0.003
   0.50000000  0.03846154  0.53846154       0.003
   0.50000000  0.04487179  0.54487179       0.003
   0.50000000  0.05128205  0.55128205       0.003
   0.50000000  0.05769231  0.55769231       0.003
   0.50000000  0.06410256  0.56410256       0.003
   0.50000000  0.07051282  0.57051282       0.003
   0.50000000  0.07692308  0.57692308       0.003
   0.50000000  0.08333333  0.58333333       0.003
   0.50000000  0.08974359  0.58974359       0.003
   0.50000000  0.09615385  0.59615385       0.003
   0.50000000  0.10256410  0.60256410       0.003
   0.50000000  0.10897436  0.60897436       0.003
   0.50000000  0.11538462  0.61538462       0.003
   0.50000000  0.12179487  0.62179487       0.003
   0.50000000  0.12820513  0.62820513       0.003
   0.50000000  0.13461538  0.63461538       0.003
   0.50000000  0.14102564  0.64102564       0.003
   0.50000000  0.14743590  0.64743590       0.003
   0.50000000  0.15384615  0.65384615       0.003
   0.50000000  0.16025641  0.66025641       0.003
   0.50000000  0.16666667  0.66666667       0.003
   0.50000000  0.17307692  0.67307692       0.003
   0.50000000  0.17948718  0.67948718       0.003
   0.50000000  0.18589744  0.68589744       0.003
   0.50000000  0.19230769  0.69230769       0.003
   0.50000000  0.19871795  0.69871795       0.003
   0.50000000  0.20512821  0.70512821       0.003
   0.50000000  0.21153846  0.71153846       0.003
   0.50000000  0.21794872  0.71794872       0.003
   0.50000000  0.22435897  0.72435897       0.003
   0.50000000  0.23076923  0.73076923       0.003
   0.50000000  0.23717949  0.73717949       0.003
   0.50000000  0.24358974  0.74358974       0.003
   0.50000000  0.25000000  0.75000000       0.003
   0.50000000  0.25000000  0.75000000       0.003
   0.49679487  0.25320513  0.75000000       0.003
   0.49358974  0.25641026  0.75000000       0.003
   0.49038462  0.25961538  0.75000000       0.003
   0.48717949  0.26282051  0.75000000       0.003
   0.48397436  0.26602564  0.75000000       0.003
   0.48076923  0.26923077  0.75000000       0.003
   0.47756410  0.27243590  0.75000000       0.003
   0.47435897  0.27564103  0.75000000       0.003
   0.47115385  0.27884615  0.75000000       0.003
   0.46794872  0.28205128  0.75000000       0.003
   0.46474359  0.28525641  0.75000000       0.003
   0.46153846  0.28846154  0.75000000       0.003
   0.45833333  0.29166667  0.75000000       0.003
   0.45512821  0.29487179  0.75000000       0.003
   0.45192308  0.29807692  0.75000000       0.003
   0.44871795  0.30128205  0.75000000       0.003
   0.44551282  0.30448718  0.75000000       0.003
   0.44230769  0.30769231  0.75000000       0.003
   0.43910256  0.31089744  0.75000000       0.003
   0.43589744  0.31410256  0.75000000       0.003
   0.43269231  0.31730769  0.75000000       0.003
   0.42948718  0.32051282  0.75000000       0.003
   0.42628205  0.32371795  0.75000000       0.003
   0.42307692  0.32692308  0.75000000       0.003
   0.41987179  0.33012821  0.75000000       0.003
   0.41666667  0.33333333  0.75000000       0.003
   0.41346154  0.33653846  0.75000000       0.003
   0.41025641  0.33974359  0.75000000       0.003
   0.40705128  0.34294872  0.75000000       0.003
   0.40384615  0.34615385  0.75000000       0.003
   0.40064103  0.34935897  0.75000000       0.003
   0.39743590  0.35256410  0.75000000       0.003
   0.39423077  0.35576923  0.75000000       0.003
   0.39102564  0.35897436  0.75000000       0.003
   0.38782051  0.36217949  0.75000000       0.003
   0.38461538  0.36538462  0.75000000       0.003
   0.38141026  0.36858974  0.75000000       0.003
   0.37820513  0.37179487  0.75000000       0.003
   0.37500000  0.37500000  0.75000000       0.003
   0.37500000  0.37500000  0.75000000       0.003
   0.36538462  0.36538462  0.73076923       0.003
   0.35576923  0.35576923  0.71153846       0.003
   0.34615385  0.34615385  0.69230769       0.003
   0.33653846  0.33653846  0.67307692       0.003
   0.32692308  0.32692308  0.65384615       0.003
   0.31730769  0.31730769  0.63461538       0.003
   0.30769231  0.30769231  0.61538462       0.003
   0.29807692  0.29807692  0.59615385       0.003
   0.28846154  0.28846154  0.57692308       0.003
   0.27884615  0.27884615  0.55769231       0.003
   0.26923077  0.26923077  0.53846154       0.003
   0.25961538  0.25961538  0.51923077       0.003
   0.25000000  0.25000000  0.50000000       0.003
   0.24038462  0.24038462  0.48076923       0.003
   0.23076923  0.23076923  0.46153846       0.003
   0.22115385  0.22115385  0.44230769       0.003
   0.21153846  0.21153846  0.42307692       0.003
   0.20192308  0.20192308  0.40384615       0.003
   0.19230769  0.19230769  0.38461538       0.003
   0.18269231  0.18269231  0.36538462       0.003
   0.17307692  0.17307692  0.34615385       0.003
   0.16346154  0.16346154  0.32692308       0.003
   0.15384615  0.15384615  0.30769231       0.003
   0.14423077  0.14423077  0.28846154       0.003
   0.13461538  0.13461538  0.26923077       0.003
   0.12500000  0.12500000  0.25000000       0.003
   0.11538462  0.11538462  0.23076923       0.003
   0.10576923  0.10576923  0.21153846       0.003
   0.09615385  0.09615385  0.19230769       0.003
   0.08653846  0.08653846  0.17307692       0.003
   0.07692308  0.07692308  0.15384615       0.003
   0.06730769  0.06730769  0.13461538       0.003
   0.05769231  0.05769231  0.11538462       0.003
   0.04807692  0.04807692  0.09615385       0.003
   0.03846154  0.03846154  0.07692308       0.003
   0.02884615  0.02884615  0.05769231       0.003
   0.01923077  0.01923077  0.03846154       0.003
   0.00961538  0.00961538  0.01923077       0.003
   0.00000000  0.00000000  0.00000000       0.003
   0.00000000  0.00000000  0.00000000       0.003
   0.01282051  0.01282051  0.01282051       0.003
   0.02564103  0.02564103  0.02564103       0.003
   0.03846154  0.03846154  0.03846154       0.003
   0.05128205  0.05128205  0.05128205       0.003
   0.06410256  0.06410256  0.06410256       0.003
   0.07692308  0.07692308  0.07692308       0.003
   0.08974359  0.08974359  0.08974359       0.003
   0.10256410  0.10256410  0.10256410       0.003
   0.11538462  0.11538462  0.11538462       0.003
   0.12820513  0.12820513  0.12820513       0.003
   0.14102564  0.14102564  0.14102564       0.003
   0.15384615  0.15384615  0.15384615       0.003
   0.16666667  0.16666667  0.16666667       0.003
   0.17948718  0.17948718  0.17948718       0.003
   0.19230769  0.19230769  0.19230769       0.003
   0.20512821  0.20512821  0.20512821       0.003
   0.21794872  0.21794872  0.21794872       0.003
   0.23076923  0.23076923  0.23076923       0.003
   0.24358974  0.24358974  0.24358974       0.003
   0.25641026  0.25641026  0.25641026       0.003
   0.26923077  0.26923077  0.26923077       0.003
   0.28205128  0.28205128  0.28205128       0.003
   0.29487179  0.29487179  0.29487179       0.003
   0.30769231  0.30769231  0.30769231       0.003
   0.32051282  0.32051282  0.32051282       0.003
   0.33333333  0.33333333  0.33333333       0.003
   0.34615385  0.34615385  0.34615385       0.003
   0.35897436  0.35897436  0.35897436       0.003
   0.37179487  0.37179487  0.37179487       0.003
   0.38461538  0.38461538  0.38461538       0.003
   0.39743590  0.39743590  0.39743590       0.003
   0.41025641  0.41025641  0.41025641       0.003
   0.42307692  0.42307692  0.42307692       0.003
   0.43589744  0.43589744  0.43589744       0.003
   0.44871795  0.44871795  0.44871795       0.003
   0.46153846  0.46153846  0.46153846       0.003
   0.47435897  0.47435897  0.47435897       0.003
   0.48717949  0.48717949  0.48717949       0.003
   0.50000000  0.50000000  0.50000000       0.003
   0.50000000  0.50000000  0.50000000       0.003
   0.50320513  0.49358974  0.50320513       0.003
   0.50641026  0.48717949  0.50641026       0.003
   0.50961538  0.48076923  0.50961538       0.003
   0.51282051  0.47435897  0.51282051       0.003
   0.51602564  0.46794872  0.51602564       0.003
   0.51923077  0.46153846  0.51923077       0.003
   0.52243590  0.45512821  0.52243590       0.003
   0.52564103  0.44871795  0.52564103       0.003
   0.52884615  0.44230769  0.52884615       0.003
   0.53205128  0.43589744  0.53205128       0.003
   0.53525641  0.42948718  0.53525641       0.003
   0.53846154  0.42307692  0.53846154       0.003
   0.54166667  0.41666667  0.54166667       0.003
   0.54487179  0.41025641  0.54487179       0.003
   0.54807692  0.40384615  0.54807692       0.003
   0.55128205  0.39743590  0.55128205       0.003
   0.55448718  0.39102564  0.55448718       0.003
   0.55769231  0.38461538  0.55769231       0.003
   0.56089744  0.37820513  0.56089744       0.003
   0.56410256  0.37179487  0.56410256       0.003
   0.56730769  0.36538462  0.56730769       0.003
   0.57051282  0.35897436  0.57051282       0.003
   0.57371795  0.35256410  0.57371795       0.003
   0.57692308  0.34615385  0.57692308       0.003
   0.58012821  0.33974359  0.58012821       0.003
   0.58333333  0.33333333  0.58333333       0.003
   0.58653846  0.32692308  0.58653846       0.003
   0.58974359  0.32051282  0.58974359       0.003
   0.59294872  0.31410256  0.59294872       0.003
   0.59615385  0.30769231  0.59615385       0.003
   0.59935897  0.30128205  0.59935897       0.003
   0.60256410  0.29487179  0.60256410       0.003
   0.60576923  0.28846154  0.60576923       0.003
   0.60897436  0.28205128  0.60897436       0.003
   0.61217949  0.27564103  0.61217949       0.003
   0.61538462  0.26923077  0.61538462       0.003
   0.61858974  0.26282051  0.61858974       0.003
   0.62179487  0.25641026  0.62179487       0.003
   0.62500000  0.25000000  0.62500000       0.003
   0.62500000  0.25000000  0.62500000       0.003
   0.62179487  0.25000000  0.62820513       0.003
   0.61858974  0.25000000  0.63141026       0.003
   0.61538462  0.25000000  0.63461538       0.003
   0.61217949  0.25000000  0.63782051       0.003
   0.60897436  0.25000000  0.64102564       0.003
   0.60576923  0.25000000  0.64423077       0.003
   0.60256410  0.25000000  0.64743590       0.003
   0.59935897  0.25000000  0.65064103       0.003
   0.59615385  0.25000000  0.65384615       0.003
   0.59294872  0.25000000  0.65705128       0.003
   0.58974359  0.25000000  0.66025641       0.003
   0.58653846  0.25000000  0.66346154       0.003
   0.58333333  0.25000000  0.66666667       0.003
   0.58012821  0.25000000  0.66987179       0.003
   0.57692308  0.25000000  0.67307692       0.003
   0.57371795  0.25000000  0.67628205       0.003
   0.57051282  0.25000000  0.67948718       0.003
   0.56730769  0.25000000  0.68269231       0.003
   0.56410256  0.25000000  0.68589744       0.003
   0.56089744  0.25000000  0.68910256       0.003
   0.55769231  0.25000000  0.69230769       0.003
   0.55448718  0.25000000  0.69551282       0.003
   0.55128205  0.25000000  0.69871795       0.003
   0.54807692  0.25000000  0.70192308       0.003
   0.54487179  0.25000000  0.70512821       0.003
   0.54166667  0.25000000  0.70833333       0.003
   0.53846154  0.25000000  0.71153846       0.003
   0.53525641  0.25000000  0.71474359       0.003
   0.53205128  0.25000000  0.71794872       0.003
   0.52884615  0.25000000  0.72115385       0.003
   0.52564103  0.25000000  0.72435897       0.003
   0.52243590  0.25000000  0.72756410       0.003
   0.51923077  0.25000000  0.73076923       0.003
   0.51602564  0.25000000  0.73397436       0.003
   0.51282051  0.25000000  0.73717949       0.003
   0.50961538  0.25000000  0.74038462       0.003
   0.50641026  0.25000000  0.74358974       0.003
   0.50320513  0.25000000  0.74679487       0.003
   0.50000000  0.25000000  0.75000000       0.003
   0.50000000  0.25000000  0.75000000       0.003
   0.50000000  0.25641026  0.74358974       0.003
   0.50000000  0.26282051  0.73717949       0.003
   0.50000000  0.26923077  0.73076923       0.003
   0.50000000  0.27564103  0.72435897       0.003
   0.50000000  0.28205128  0.71794872       0.003
   0.50000000  0.28846154  0.71153846       0.003
   0.50000000  0.29487179  0.70512821       0.003
   0.50000000  0.30128205  0.69871795       0.003
   0.50000000  0.30769231  0.69230769       0.003
   0.50000000  0.31410256  0.68589744       0.003
   0.50000000  0.32051282  0.67948718       0.003
   0.50000000  0.32692308  0.67307692       0.003
   0.50000000  0.33333333  0.66666667       0.003
   0.50000000  0.33974359  0.66025641       0.003
   0.50000000  0.34615385  0.65384615       0.003
   0.50000000  0.35256410  0.64743590       0.003
   0.50000000  0.35897436  0.64102564       0.003
   0.50000000  0.36538462  0.63461538       0.003
   0.50000000  0.37179487  0.62820513       0.003
   0.50000000  0.37820513  0.62179487       0.003
   0.50000000  0.38461538  0.61538462       0.003
   0.50000000  0.39102564  0.60897436       0.003
   0.50000000  0.39743590  0.60256410       0.003
   0.50000000  0.40384615  0.59615385       0.003
   0.50000000  0.41025641  0.58974359       0.003
   0.50000000  0.41666667  0.58333333       0.003
   0.50000000  0.42307692  0.57692308       0.003
   0.50000000  0.42948718  0.57051282       0.003
   0.50000000  0.43589744  0.56410256       0.003
   0.50000000  0.44230769  0.55769231       0.003
   0.50000000  0.44871795  0.55128205       0.003
   0.50000000  0.45512821  0.54487179       0.003
   0.50000000  0.46153846  0.53846154       0.003
   0.50000000  0.46794872  0.53205128       0.003
   0.50000000  0.47435897  0.52564103       0.003
   0.50000000  0.48076923  0.51923077       0.003
   0.50000000  0.48717949  0.51282051       0.003
   0.50000000  0.49358974  0.50641026       0.003
   0.50000000  0.50000000  0.50000000       0.003
   0.50000000  0.50000000  0.50000000       0.003
   0.49679487  0.49679487  0.50641026       0.003
   0.49358974  0.49358974  0.51282051       0.003
   0.49038462  0.49038462  0.51923077       0.003
   0.48717949  0.48717949  0.52564103       0.003
   0.48397436  0.48397436  0.53205128       0.003
   0.48076923  0.48076923  0.53846154       0.003
   0.47756410  0.47756410  0.54487179       0.003
   0.47435897  0.47435897  0.55128205       0.003
   0.47115385  0.47115385  0.55769231       0.003
   0.46794872  0.46794872  0.56410256       0.003
   0.46474359  0.46474359  0.57051282       0.003
   0.46153846  0.46153846  0.57692308       0.003
   0.45833333  0.45833333  0.58333333       0.003
   0.45512821  0.45512821  0.58974359       0.003
   0.45192308  0.45192308  0.59615385       0.003
   0.44871795  0.44871795  0.60256410       0.003
   0.44551282  0.44551282  0.60897436       0.003
   0.44230769  0.44230769  0.61538462       0.003
   0.43910256  0.43910256  0.62179487       0.003
   0.43589744  0.43589744  0.62820513       0.003
   0.43269231  0.43269231  0.63461538       0.003
   0.42948718  0.42948718  0.64102564       0.003
   0.42628205  0.42628205  0.64743590       0.003
   0.42307692  0.42307692  0.65384615       0.003
   0.41987179  0.41987179  0.66025641       0.003
   0.41666667  0.41666667  0.66666667       0.003
   0.41346154  0.41346154  0.67307692       0.003
   0.41025641  0.41025641  0.67948718       0.003
   0.40705128  0.40705128  0.68589744       0.003
   0.40384615  0.40384615  0.69230769       0.003
   0.40064103  0.40064103  0.69871795       0.003
   0.39743590  0.39743590  0.70512821       0.003
   0.39423077  0.39423077  0.71153846       0.003
   0.39102564  0.39102564  0.71794872       0.003
   0.38782051  0.38782051  0.72435897       0.003
   0.38461538  0.38461538  0.73076923       0.003
   0.38141026  0.38141026  0.73717949       0.003
   0.37820513  0.37820513  0.74358974       0.003
   0.37500000  0.37500000  0.75000000       0.003
   0.62500000  0.25000000  0.62500000       0.003
   0.62179487  0.24358974  0.62179487       0.003
   0.61858974  0.23717949  0.61858974       0.003
   0.61538462  0.23076923  0.61538462       0.003
   0.61217949  0.22435897  0.61217949       0.003
   0.60897436  0.21794872  0.60897436       0.003
   0.60576923  0.21153846  0.60576923       0.003
   0.60256410  0.20512821  0.60256410       0.003
   0.59935897  0.19871795  0.59935897       0.003
   0.59615385  0.19230769  0.59615385       0.003
   0.59294872  0.18589744  0.59294872       0.003
   0.58974359  0.17948718  0.58974359       0.003
   0.58653846  0.17307692  0.58653846       0.003
   0.58333333  0.16666667  0.58333333       0.003
   0.58012821  0.16025641  0.58012821       0.003
   0.57692308  0.15384615  0.57692308       0.003
   0.57371795  0.14743590  0.57371795       0.003
   0.57051282  0.14102564  0.57051282       0.003
   0.56730769  0.13461538  0.56730769       0.003
   0.56410256  0.12820513  0.56410256       0.003
   0.56089744  0.12179487  0.56089744       0.003
   0.55769231  0.11538462  0.55769231       0.003
   0.55448718  0.10897436  0.55448718       0.003
   0.55128205  0.10256410  0.55128205       0.003
   0.54807692  0.09615385  0.54807692       0.003
   0.54487179  0.08974359  0.54487179       0.003
   0.54166667  0.08333333  0.54166667       0.003
   0.53846154  0.07692308  0.53846154       0.003
   0.53525641  0.07051282  0.53525641       0.003
   0.53205128  0.06410256  0.53205128       0.003
   0.52884615  0.05769231  0.52884615       0.003
   0.52564103  0.05128205  0.52564103       0.003
   0.52243590  0.04487179  0.52243590       0.003
   0.51923077  0.03846154  0.51923077       0.003
   0.51602564  0.03205128  0.51602564       0.003
   0.51282051  0.02564103  0.51282051       0.003
   0.50961538  0.01923077  0.50961538       0.003
   0.50641026  0.01282051  0.50641026       0.003
   0.50320513  0.00641026  0.50320513       0.003
   0.50000000  0.00000000  0.50000000       0.003
 
 position of ions in fractional coordinates (direct lattice) 
   0.74999998  0.74999998  0.75000000
   0.50000001  0.49999999  0.50000000
 
 position of ions in cartesian coordinates  (Angst):
   5.73965535  3.31379157  2.34320452
   3.82643698  2.20919438  1.56213635
 


--------------------------------------------------------------------------------------------------------


 k-point  1 :   0.0000 0.0000 0.0000  plane waves:    1067
 k-point  2 :   0.0128 0.0000 0.0128  plane waves:    1067
 k-point  3 :   0.0256 0.0000 0.0256  plane waves:    1067
 k-point  4 :   0.0385 0.0000 0.0385  plane waves:    1062
 k-point  5 :   0.0513 0.0000 0.0513  plane waves:    1058
 k-point  6 :   0.0641 0.0000 0.0641  plane waves:    1054
 k-point  7 :   0.0769 0.0000 0.0769  plane waves:    1058
 k-point  8 :   0.0897 0.0000 0.0897  plane waves:    1054
 k-point  9 :   0.1026 0.0000 0.1026  plane waves:    1054
 k-point 10 :   0.1154 0.0000 0.1154  plane waves:    1046
 k-point 11 :   0.1282 0.0000 0.1282  plane waves:    1054
 k-point 12 :   0.1410 0.0000 0.1410  plane waves:    1054
 k-point 13 :   0.1538 0.0000 0.1538  plane waves:    1054
 k-point 14 :   0.1667 0.0000 0.1667  plane waves:    1058
 k-point 15 :   0.1795 0.0000 0.1795  plane waves:    1054
 k-point 16 :   0.1923 0.0000 0.1923  plane waves:    1054
 k-point 17 :   0.2051 0.0000 0.2051  plane waves:    1054
 k-point 18 :   0.2179 0.0000 0.2179  plane waves:    1062
 k-point 19 :   0.2308 0.0000 0.2308  plane waves:    1062
 k-point 20 :   0.2436 0.0000 0.2436  plane waves:    1062
 k-point 21 :   0.2564 0.0000 0.2564  plane waves:    1062
 k-point 22 :   0.2692 0.0000 0.2692  plane waves:    1062
 k-point 23 :   0.2821 0.0000 0.2821  plane waves:    1054
 k-point 24 :   0.2949 0.0000 0.2949  plane waves:    1054
 k-point 25 :   0.3077 0.0000 0.3077  plane waves:    1058
 k-point 26 :   0.3205 0.0000 0.3205  plane waves:    1058
 k-point 27 :   0.3333 0.0000 0.3333  plane waves:    1058
 k-point 28 :   0.3462 0.0000 0.3462  plane waves:    1058
 k-point 29 :   0.3590 0.0000 0.3590  plane waves:    1058
 k-point 30 :   0.3718 0.0000 0.3718  plane waves:    1058
 k-point 31 :   0.3846 0.0000 0.3846  plane waves:    1062
 k-point 32 :   0.3974 0.0000 0.3974  plane waves:    1062
 k-point 33 :   0.4103 0.0000 0.4103  plane waves:    1066
 k-point 34 :   0.4231 0.0000 0.4231  plane waves:    1066
 k-point 35 :   0.4359 0.0000 0.4359  plane waves:    1066
 k-point 36 :   0.4487 0.0000 0.4487  plane waves:    1078
 k-point 37 :   0.4615 0.0000 0.4615  plane waves:    1078
 k-point 38 :   0.4744 0.0000 0.4744  plane waves:    1078
 k-point 39 :   0.4872 0.0000 0.4872  plane waves:    1074
 k-point 40 :   0.5000 0.0000 0.5000  plane waves:    1090
 k-point 41 :   0.5000 0.0000 0.5000  plane waves:    1090
 k-point 42 :   0.5000 0.0064 0.5064  plane waves:    1088
 k-point 43 :   0.5000 0.0128 0.5128  plane waves:    1076
 k-point 44 :   0.5000 0.0192 0.5192  plane waves:    1068
 k-point 45 :   0.5000 0.0256 0.5256  plane waves:    1068
 k-point 46 :   0.5000 0.0321 0.5321  plane waves:    1068
 k-point 47 :   0.5000 0.0385 0.5385  plane waves:    1068
 k-point 48 :   0.5000 0.0449 0.5449  plane waves:    1068
 k-point 49 :   0.5000 0.0513 0.5513  plane waves:    1068
 k-point 50 :   0.5000 0.0577 0.5577  plane waves:    1068
 k-point 51 :   0.5000 0.0641 0.5641  plane waves:    1068
 k-point 52 :   0.5000 0.0705 0.5705  plane waves:    1068
 k-point 53 :   0.5000 0.0769 0.5769  plane waves:    1068
 k-point 54 :   0.5000 0.0833 0.5833  plane waves:    1068
 k-point 55 :   0.5000 0.0897 0.5897  plane waves:    1064
 k-point 56 :   0.5000 0.0962 0.5962  plane waves:    1068
 k-point 57 :   0.5000 0.1026 0.6026  plane waves:    1068
 k-point 58 :   0.5000 0.1090 0.6090  plane waves:    1068
 k-point 59 :   0.5000 0.1154 0.6154  plane waves:    1066
 k-point 60 :   0.5000 0.1218 0.6218  plane waves:    1070
 k-point 61 :   0.5000 0.1282 0.6282  plane waves:    1070
 k-point 62 :   0.5000 0.1346 0.6346  plane waves:    1076
 k-point 63 :   0.5000 0.1410 0.6410  plane waves:    1076
 k-point 64 :   0.5000 0.1474 0.6474  plane waves:    1076
 k-point 65 :   0.5000 0.1538 0.6538  plane waves:    1076
 k-point 66 :   0.5000 0.1603 0.6603  plane waves:    1072
 k-point 67 :   0.5000 0.1667 0.6667  plane waves:    1072
 k-point 68 :   0.5000 0.1731 0.6731  plane waves:    1068
 k-point 69 :   0.5000 0.1795 0.6795  plane waves:    1068
 k-point 70 :   0.5000 0.1859 0.6859  plane waves:    1068
 k-point 71 :   0.5000 0.1923 0.6923  plane waves:    1068
 k-point 72 :   0.5000 0.1987 0.6987  plane waves:    1066
 k-point 73 :   0.5000 0.2051 0.7051  plane waves:    1066
 k-point 74 :   0.5000 0.2115 0.7115  plane waves:    1066
 k-point 75 :   0.5000 0.2179 0.7179  plane waves:    1066
 k-point 76 :   0.5000 0.2244 0.7244  plane waves:    1066
 k-point 77 :   0.5000 0.2308 0.7308  plane waves:    1066
 k-point 78 :   0.5000 0.2372 0.7372  plane waves:    1066
 k-point 79 :   0.5000 0.2436 0.7436  plane waves:    1062
 k-point 80 :   0.5000 0.2500 0.7500  plane waves:    1048
 k-point 81 :   0.5000 0.2500 0.7500  plane waves:    1048
 k-point 82 :   0.4968 0.2532 0.7500  plane waves:    1065
 k-point 83 :   0.4936 0.2564 0.7500  plane waves:    1065
 k-point 84 :   0.4904 0.2596 0.7500  plane waves:    1067
 k-point 85 :   0.4872 0.2628 0.7500  plane waves:    1067
 k-point 86 :   0.4840 0.2660 0.7500  plane waves:    1067
 k-point 87 :   0.4808 0.2692 0.7500  plane waves:    1067
 k-point 88 :   0.4776 0.2724 0.7500  plane waves:    1067
 k-point 89 :   0.4744 0.2756 0.7500  plane waves:    1067
 k-point 90 :   0.4712 0.2788 0.7500  plane waves:    1067
 k-point 91 :   0.4679 0.2821 0.7500  plane waves:    1067
 k-point 92 :   0.4647 0.2853 0.7500  plane waves:    1067
 k-point 93 :   0.4615 0.2885 0.7500  plane waves:    1067
 k-point 94 :   0.4583 0.2917 0.7500  plane waves:    1071
 k-point 95 :   0.4551 0.2949 0.7500  plane waves:    1071
 k-point 96 :   0.4519 0.2981 0.7500  plane waves:    1071
 k-point 97 :   0.4487 0.3013 0.7500  plane waves:    1071
 k-point 98 :   0.4455 0.3045 0.7500  plane waves:    1069
 k-point 99 :   0.4423 0.3077 0.7500  plane waves:    1069
 k-point ** :   0.4391 0.3109 0.7500  plane waves:    1073
 k-point ** :   0.4359 0.3141 0.7500  plane waves:    1073
 k-point ** :   0.4327 0.3173 0.7500  plane waves:    1071
 k-point ** :   0.4295 0.3205 0.7500  plane waves:    1072
 k-point ** :   0.4263 0.3237 0.7500  plane waves:    1071
 k-point ** :   0.4231 0.3269 0.7500  plane waves:    1071
 k-point ** :   0.4199 0.3301 0.7500  plane waves:    1077
 k-point ** :   0.4167 0.3333 0.7500  plane waves:    1077
 k-point ** :   0.4135 0.3365 0.7500  plane waves:    1073
 k-point ** :   0.4103 0.3397 0.7500  plane waves:    1071
 k-point ** :   0.4071 0.3429 0.7500  plane waves:    1071
 k-point ** :   0.4038 0.3462 0.7500  plane waves:    1071
 k-point ** :   0.4006 0.3494 0.7500  plane waves:    1073
 k-point ** :   0.3974 0.3526 0.7500  plane waves:    1073
 k-point ** :   0.3942 0.3558 0.7500  plane waves:    1071
 k-point ** :   0.3910 0.3590 0.7500  plane waves:    1071
 k-point ** :   0.3878 0.3622 0.7500  plane waves:    1067
 k-point ** :   0.3846 0.3654 0.7500  plane waves:    1067
 k-point ** :   0.3814 0.3686 0.7500  plane waves:    1067
 k-point ** :   0.3782 0.3718 0.7500  plane waves:    1067
 k-point ** :   0.3750 0.3750 0.7500  plane waves:    1069
 k-point ** :   0.3750 0.3750 0.7500  plane waves:    1069
 k-point ** :   0.3654 0.3654 0.7308  plane waves:    1069
 k-point ** :   0.3558 0.3558 0.7115  plane waves:    1073
 k-point ** :   0.3462 0.3462 0.6923  plane waves:    1069
 k-point ** :   0.3365 0.3365 0.6731  plane waves:    1073
 k-point ** :   0.3269 0.3269 0.6538  plane waves:    1073
 k-point ** :   0.3173 0.3173 0.6346  plane waves:    1069
 k-point ** :   0.3077 0.3077 0.6154  plane waves:    1073
 k-point ** :   0.2981 0.2981 0.5962  plane waves:    1069
 k-point ** :   0.2885 0.2885 0.5769  plane waves:    1073
 k-point ** :   0.2788 0.2788 0.5577  plane waves:    1077
 k-point ** :   0.2692 0.2692 0.5385  plane waves:    1071
 k-point ** :   0.2596 0.2596 0.5192  plane waves:    1069
 k-point ** :   0.2500 0.2500 0.5000  plane waves:    1065
 k-point ** :   0.2404 0.2404 0.4808  plane waves:    1069
 k-point ** :   0.2308 0.2308 0.4615  plane waves:    1069
 k-point ** :   0.2212 0.2212 0.4423  plane waves:    1069
 k-point ** :   0.2115 0.2115 0.4231  plane waves:    1069
 k-point ** :   0.2019 0.2019 0.4038  plane waves:    1073
 k-point ** :   0.1923 0.1923 0.3846  plane waves:    1073
 k-point ** :   0.1827 0.1827 0.3654  plane waves:    1065
 k-point ** :   0.1731 0.1731 0.3462  plane waves:    1065
 k-point ** :   0.1635 0.1635 0.3269  plane waves:    1065
 k-point ** :   0.1538 0.1538 0.3077  plane waves:    1067
 k-point ** :   0.1442 0.1442 0.2885  plane waves:    1053
 k-point ** :   0.1346 0.1346 0.2692  plane waves:    1055
 k-point ** :   0.1250 0.1250 0.2500  plane waves:    1055
 k-point ** :   0.1154 0.1154 0.2308  plane waves:    1051
 k-point ** :   0.1058 0.1058 0.2115  plane waves:    1055
 k-point ** :   0.0962 0.0962 0.1923  plane waves:    1049
 k-point ** :   0.0865 0.0865 0.1731  plane waves:    1053
 k-point ** :   0.0769 0.0769 0.1538  plane waves:    1053
 k-point ** :   0.0673 0.0673 0.1346  plane waves:    1049
 k-point ** :   0.0577 0.0577 0.1154  plane waves:    1047
 k-point ** :   0.0481 0.0481 0.0962  plane waves:    1049
 k-point ** :   0.0385 0.0385 0.0769  plane waves:    1059
 k-point ** :   0.0288 0.0288 0.0577  plane waves:    1065
 k-point ** :   0.0192 0.0192 0.0385  plane waves:    1067
 k-point ** :   0.0096 0.0096 0.0192  plane waves:    1067
 k-point ** :   0.0000 0.0000 0.0000  plane waves:    1067
 k-point ** :   0.0000 0.0000 0.0000  plane waves:    1067
 k-point ** :   0.0128 0.0128 0.0128  plane waves:    1067
 k-point ** :   0.0256 0.0256 0.0256  plane waves:    1067
 k-point ** :   0.0385 0.0385 0.0385  plane waves:    1067
 k-point ** :   0.0513 0.0513 0.0513  plane waves:    1061
 k-point ** :   0.0641 0.0641 0.0641  plane waves:    1058
 k-point ** :   0.0769 0.0769 0.0769  plane waves:    1049
 k-point ** :   0.0897 0.0897 0.0897  plane waves:    1052
 k-point ** :   0.1026 0.1026 0.1026  plane waves:    1052
 k-point ** :   0.1154 0.1154 0.1154  plane waves:    1052
 k-point ** :   0.1282 0.1282 0.1282  plane waves:    1058
 k-point ** :   0.1410 0.1410 0.1410  plane waves:    1058
 k-point ** :   0.1538 0.1538 0.1538  plane waves:    1058
 k-point ** :   0.1667 0.1667 0.1667  plane waves:    1049
 k-point ** :   0.1795 0.1795 0.1795  plane waves:    1058
 k-point ** :   0.1923 0.1923 0.1923  plane waves:    1059
 k-point ** :   0.2051 0.2051 0.2051  plane waves:    1065
 k-point ** :   0.2179 0.2179 0.2179  plane waves:    1065
 k-point ** :   0.2308 0.2308 0.2308  plane waves:    1071
 k-point ** :   0.2436 0.2436 0.2436  plane waves:    1071
 k-point ** :   0.2564 0.2564 0.2564  plane waves:    1074
 k-point ** :   0.2692 0.2692 0.2692  plane waves:    1068
 k-point ** :   0.2821 0.2821 0.2821  plane waves:    1071
 k-point ** :   0.2949 0.2949 0.2949  plane waves:    1071
 k-point ** :   0.3077 0.3077 0.3077  plane waves:    1071
 k-point ** :   0.3205 0.3205 0.3205  plane waves:    1065
 k-point ** :   0.3333 0.3333 0.3333  plane waves:    1059
 k-point ** :   0.3462 0.3462 0.3462  plane waves:    1059
 k-point ** :   0.3590 0.3590 0.3590  plane waves:    1065
 k-point ** :   0.3718 0.3718 0.3718  plane waves:    1065
 k-point ** :   0.3846 0.3846 0.3846  plane waves:    1059
 k-point ** :   0.3974 0.3974 0.3974  plane waves:    1059
 k-point ** :   0.4103 0.4103 0.4103  plane waves:    1062
 k-point ** :   0.4231 0.4231 0.4231  plane waves:    1068
 k-point ** :   0.4359 0.4359 0.4359  plane waves:    1074
 k-point ** :   0.4487 0.4487 0.4487  plane waves:    1068
 k-point ** :   0.4615 0.4615 0.4615  plane waves:    1068
 k-point ** :   0.4744 0.4744 0.4744  plane waves:    1068
 k-point ** :   0.4872 0.4872 0.4872  plane waves:    1068
 k-point ** :   0.5000 0.5000 0.5000  plane waves:    1068
 k-point ** :   0.5000 0.5000 0.5000  plane waves:    1068
 k-point ** :   0.5032 0.4936 0.5032  plane waves:    1068
 k-point ** :   0.5064 0.4872 0.5064  plane waves:    1064
 k-point ** :   0.5096 0.4808 0.5096  plane waves:    1064
 k-point ** :   0.5128 0.4744 0.5128  plane waves:    1064
 k-point ** :   0.5160 0.4679 0.5160  plane waves:    1066
 k-point ** :   0.5192 0.4615 0.5192  plane waves:    1070
 k-point ** :   0.5224 0.4551 0.5224  plane waves:    1070
 k-point ** :   0.5256 0.4487 0.5256  plane waves:    1072
 k-point ** :   0.5288 0.4423 0.5288  plane waves:    1072
 k-point ** :   0.5321 0.4359 0.5321  plane waves:    1068
 k-point ** :   0.5353 0.4295 0.5353  plane waves:    1072
 k-point ** :   0.5385 0.4231 0.5385  plane waves:    1074
 k-point ** :   0.5417 0.4167 0.5417  plane waves:    1074
 k-point ** :   0.5449 0.4103 0.5449  plane waves:    1076
 k-point ** :   0.5481 0.4038 0.5481  plane waves:    1074
 k-point ** :   0.5513 0.3974 0.5513  plane waves:    1076
 k-point ** :   0.5545 0.3910 0.5545  plane waves:    1074
 k-point ** :   0.5577 0.3846 0.5577  plane waves:    1075
 k-point ** :   0.5609 0.3782 0.5609  plane waves:    1073
 k-point ** :   0.5641 0.3718 0.5641  plane waves:    1075
 k-point ** :   0.5673 0.3654 0.5673  plane waves:    1077
 k-point ** :   0.5705 0.3590 0.5705  plane waves:    1077
 k-point ** :   0.5737 0.3526 0.5737  plane waves:    1075
 k-point ** :   0.5769 0.3462 0.5769  plane waves:    1075
 k-point ** :   0.5801 0.3397 0.5801  plane waves:    1073
 k-point ** :   0.5833 0.3333 0.5833  plane waves:    1073
 k-point ** :   0.5865 0.3269 0.5865  plane waves:    1073
 k-point ** :   0.5897 0.3205 0.5897  plane waves:    1071
 k-point ** :   0.5929 0.3141 0.5929  plane waves:    1071
 k-point ** :   0.5962 0.3077 0.5962  plane waves:    1067
 k-point ** :   0.5994 0.3013 0.5994  plane waves:    1066
 k-point ** :   0.6026 0.2949 0.6026  plane waves:    1070
 k-point ** :   0.6058 0.2885 0.6058  plane waves:    1070
 k-point ** :   0.6090 0.2821 0.6090  plane waves:    1074
 k-point ** :   0.6122 0.2756 0.6122  plane waves:    1072
 k-point ** :   0.6154 0.2692 0.6154  plane waves:    1068
 k-point ** :   0.6186 0.2628 0.6186  plane waves:    1068
 k-point ** :   0.6218 0.2564 0.6218  plane waves:    1068
 k-point ** :   0.6250 0.2500 0.6250  plane waves:    1069
 k-point ** :   0.6250 0.2500 0.6250  plane waves:    1069
 k-point ** :   0.6218 0.2500 0.6282  plane waves:    1067
 k-point ** :   0.6186 0.2500 0.6314  plane waves:    1067
 k-point ** :   0.6154 0.2500 0.6346  plane waves:    1067
 k-point ** :   0.6122 0.2500 0.6378  plane waves:    1067
 k-point ** :   0.6090 0.2500 0.6410  plane waves:    1071
 k-point ** :   0.6058 0.2500 0.6442  plane waves:    1071
 k-point ** :   0.6026 0.2500 0.6474  plane waves:    1073
 k-point ** :   0.5994 0.2500 0.6506  plane waves:    1073
 k-point ** :   0.5962 0.2500 0.6538  plane waves:    1071
 k-point ** :   0.5929 0.2500 0.6571  plane waves:    1071
 k-point ** :   0.5897 0.2500 0.6603  plane waves:    1071
 k-point ** :   0.5865 0.2500 0.6635  plane waves:    1073
 k-point ** :   0.5833 0.2500 0.6667  plane waves:    1077
 k-point ** :   0.5801 0.2500 0.6699  plane waves:    1077
 k-point ** :   0.5769 0.2500 0.6731  plane waves:    1071
 k-point ** :   0.5737 0.2500 0.6763  plane waves:    1071
 k-point ** :   0.5705 0.2500 0.6795  plane waves:    1072
 k-point ** :   0.5673 0.2500 0.6827  plane waves:    1071
 k-point ** :   0.5641 0.2500 0.6859  plane waves:    1073
 k-point ** :   0.5609 0.2500 0.6891  plane waves:    1073
 k-point ** :   0.5577 0.2500 0.6923  plane waves:    1069
 k-point ** :   0.5545 0.2500 0.6955  plane waves:    1069
 k-point ** :   0.5513 0.2500 0.6987  plane waves:    1071
 k-point ** :   0.5481 0.2500 0.7019  plane waves:    1071
 k-point ** :   0.5449 0.2500 0.7051  plane waves:    1071
 k-point ** :   0.5417 0.2500 0.7083  plane waves:    1071
[...]
     10      16.7368      0.00000
     11      18.7010      0.00000
     12      18.7081      0.00000
     13      19.2312      0.00000
     14      19.4045      0.00000
     15      24.5483      0.00000
     16      24.7021      0.00000
     17      25.7684      0.00000
     18      25.8585      0.00000
     19      26.2937      0.00000
     20      26.5775      0.00000
     21      27.6673      0.00000
     22      27.8544      0.00000
     23      31.2762      0.00000
     24      31.5305      0.00000
     25      35.6215      0.00000
     26      35.8964      0.00000
     27      39.4538      0.00000
     28      40.3854      0.00000
     29      40.4993      0.00000
     30      41.2437      0.00000
     31      41.4177      0.00000
     32      41.9421      0.00000
     33      44.4595      0.00000
     34      44.6915      0.00000
     35      45.5765      0.00000
     36      46.0538      0.00000

 k-point   394 :       0.5192    0.0385    0.5192
  band No.  band energies     occupation 
      1      -1.9181      1.00000
      2      -1.8987      1.00000
      3       2.9699      1.00000
      4       3.0685      1.00000
      5       6.6364      0.00000
      6       6.7553      0.00000
      7      15.9964      0.00000
      8      16.0670      0.00000
      9      16.7588      0.00000
     10      16.7868      0.00000
     11      18.6520      0.00000
     12      18.6558      0.00000
     13      19.2056      0.00000
     14      19.3373      0.00000
     15      24.6246      0.00000
     16      24.7481      0.00000
     17      25.7734      0.00000
     18      25.8419      0.00000
     19      26.2831      0.00000
     20      26.5040      0.00000
     21      27.6535      0.00000
     22      27.7949      0.00000
     23      31.3511      0.00000
     24      31.5429      0.00000
     25      35.6216      0.00000
     26      35.8281      0.00000
     27      39.5969      0.00000
     28      40.3857      0.00000
     29      40.4925      0.00000
     30      41.1423      0.00000
     31      41.5542      0.00000
     32      41.9554      0.00000
     33      44.4540      0.00000
     34      44.6237      0.00000
     35      45.6148      0.00000
     36      46.1874      0.00000

 k-point   395 :       0.5160    0.0321    0.5160
  band No.  band energies     occupation 
      1      -1.9165      1.00000
      2      -1.9030      1.00000
      3       2.9961      1.00000
      4       3.0653      1.00000
      5       6.6327      0.00000
      6       6.7160      0.00000
      7      16.0393      0.00000
      8      16.0899      0.00000
      9      16.8116      0.00000
     10      16.8313      0.00000
     11      18.6083      0.00000
     12      18.6100      0.00000
     13      19.1836      0.00000
     14      19.2779      0.00000
     15      24.6947      0.00000
     16      24.7878      0.00000
     17      25.7787      0.00000
     18      25.8279      0.00000
     19      26.2741      0.00000
     20      26.4361      0.00000
     21      27.6418      0.00000
     22      27.7425      0.00000
     23      31.4172      0.00000
     24      31.5534      0.00000
     25      35.6216      0.00000
     26      35.7679      0.00000
     27      39.7392      0.00000
     28      40.3852      0.00000
     29      40.4868      0.00000
     30      41.0356      0.00000
     31      41.6777      0.00000
     32      41.9668      0.00000
     33      44.4485      0.00000
     34      44.5660      0.00000
     35      45.6485      0.00000
     36      46.0552      0.00000

 k-point   396 :       0.5128    0.0256    0.5128
  band No.  band energies     occupation 
      1      -1.9151      1.00000
      2      -1.9065      1.00000
      3       3.0180      1.00000
      4       3.0627      1.00000
      5       6.6297      0.00000
      6       6.6834      0.00000
      7      16.0757      0.00000
      8      16.1089      0.00000
      9      16.8567      0.00000
     10      16.8695      0.00000
     11      18.5708      0.00000
     12      18.5713      0.00000
     13      19.1653      0.00000
     14      19.2273      0.00000
     15      24.7566      0.00000
     16      24.8209      0.00000
     17      25.7840      0.00000
     18      25.8164      0.00000
     19      26.2667      0.00000
     20      26.3757      0.00000
     21      27.6322      0.00000
     22      27.6981      0.00000
     23      31.4732      0.00000
     24      31.5620      0.00000
     25      35.6216      0.00000
     26      35.7169      0.00000
     27      39.8802      0.00000
     28      40.3845      0.00000
     29      40.4821      0.00000
     30      40.9239      0.00000
     31      41.7851      0.00000
     32      41.9761      0.00000
     33      44.4436      0.00000
     34      44.5186      0.00000
     35      45.6771      0.00000
     36      45.9441      0.00000

 k-point   397 :       0.5096    0.0192    0.5096
  band No.  band energies     occupation 
      1      -1.9141      1.00000
      2      -1.9093      1.00000
      3       3.0353      1.00000
      4       3.0607      1.00000
      5       6.6273      0.00000
      6       6.6577      0.00000
      7      16.1048      0.00000
      8      16.1239      0.00000
      9      16.8932      0.00000
     10      16.9005      0.00000
     11      18.5403      0.00000
     12      18.5404      0.00000
     13      19.1509      0.00000
     14      19.1865      0.00000
     15      24.8084      0.00000
     16      24.8470      0.00000
     17      25.7888      0.00000
     18      25.8075      0.00000
     19      26.2610      0.00000
     20      26.3249      0.00000
     21      27.6247      0.00000
     22      27.6624      0.00000
     23      31.5180      0.00000
     24      31.5687      0.00000
     25      35.6216      0.00000
     26      35.6759      0.00000
     27      40.0194      0.00000
     28      40.3837      0.00000
     29      40.4785      0.00000
     30      40.8075      0.00000
     31      41.8731      0.00000
     32      41.9835      0.00000
     33      44.4395      0.00000
     34      44.4816      0.00000
     35      45.7000      0.00000
     36      45.8535      0.00000

 k-point   398 :       0.5064    0.0128    0.5064
  band No.  band energies     occupation 
      1      -1.9134      1.00000
      2      -1.9112      1.00000
      3       3.0479      1.00000
      4       3.0592      1.00000
      5       6.6256      0.00000
      6       6.6392      0.00000
      7      16.1261      0.00000
      8      16.1347      0.00000
      9      16.9201      0.00000
     10      16.9234      0.00000
     11      18.5177      0.00000
     12      18.5179      0.00000
     13      19.1405      0.00000
     14      19.1566      0.00000
     15      24.8478      0.00000
     16      24.8658      0.00000
     17      25.7927      0.00000
     18      25.8011      0.00000
     19      26.2569      0.00000
     20      26.2863      0.00000
     21      27.6194      0.00000
     22      27.6364      0.00000
     23      31.5508      0.00000
     24      31.5735      0.00000
     25      35.6216      0.00000
     26      35.6460      0.00000
     27      40.1560      0.00000
     28      40.3830      0.00000
     29      40.4759      0.00000
     30      40.6872      0.00000
     31      41.9387      0.00000
     32      41.9887      0.00000
     33      44.4365      0.00000
     34      44.4552      0.00000
     35      45.7168      0.00000
     36      45.7861      0.00000

 k-point   399 :       0.5032    0.0064    0.5032
  band No.  band energies     occupation 
      1      -1.9130      1.00000
      2      -1.9124      1.00000
      3       3.0555      1.00000
      4       3.0583      1.00000
      5       6.6246      0.00000
      6       6.6280      0.00000
      7      16.1391      0.00000
      8      16.1412      0.00000
      9      16.9366      0.00000
     10      16.9374      0.00000
     11      18.5040      0.00000
     12      18.5040      0.00000
     13      19.1342      0.00000
     14      19.1383      0.00000
     15      24.8725      0.00000
     16      24.8771      0.00000
     17      25.7952      0.00000
     18      25.7973      0.00000
     19      26.2544      0.00000
     20      26.2619      0.00000
     21      27.6162      0.00000
     22      27.6205      0.00000
     23      31.5707      0.00000
     24      31.5764      0.00000
     25      35.6216      0.00000
     26      35.6277      0.00000
     27      40.2877      0.00000
     28      40.3826      0.00000
     29      40.4743      0.00000
     30      40.5653      0.00000
     31      41.9792      0.00000
     32      41.9918      0.00000
     33      44.4346      0.00000
     34      44.4393      0.00000
     35      45.7269      0.00000
     36      45.7444      0.00000

 k-point   400 :       0.5000    0.0000    0.5000
  band No.  band energies     occupation 
      1      -1.9128      1.00000
      2      -1.9128      1.00000
      3       3.0580      1.00000
      4       3.0580      1.00000
      5       6.6243      0.00000
      6       6.6243      0.00000
      7      16.1434      0.00000
      8      16.1434      0.00000
      9      16.9421      0.00000
     10      16.9421      0.00000
     11      18.4994      0.00000
     12      18.4994      0.00000
     13      19.1321      0.00000
     14      19.1321      0.00000
     15      24.8809      0.00000
     16      24.8809      0.00000
     17      25.7960      0.00000
     18      25.7960      0.00000
     19      26.2536      0.00000
     20      26.2536      0.00000
     21      27.6151      0.00000
     22      27.6151      0.00000
     23      31.5773      0.00000
     24      31.5773      0.00000
     25      35.6216      0.00000
     26      35.6216      0.00000
     27      40.3824      0.00000
     28      40.3824      0.00000
     29      40.4738      0.00000
     30      40.4738      0.00000
     31      41.9929      0.00000
     32      41.9929      0.00000
     33      44.4340      0.00000
     34      44.4340      0.00000
     35      45.7304      0.00000
     36      45.7304      0.00000


--------------------------------------------------------------------------------------------------------


 soft charge-density along one line, spin component           1
         0         1         2         3         4         5         6         7         8         9
 total charge-density along one line
 
 soft charge-density along one line, spin component           2
         0         1         2         3         4         5         6         7         8         9
 total charge-density along one line
 
 pseudopotential strength for first ion, spin component:           1
 18.401  25.673  -0.000  -0.000  -0.000  -0.000  -0.000  -0.000
 25.673  35.823  -0.000  -0.000  -0.000  -0.000  -0.000  -0.000
 -0.000  -0.000   4.177  -0.000  -0.000   7.784  -0.000  -0.000
 -0.000  -0.000  -0.000   4.177  -0.000  -0.000   7.784  -0.000
 -0.000  -0.000  -0.000  -0.000   4.177  -0.000  -0.000   7.784
 -0.000  -0.000   7.784  -0.000  -0.000  14.515  -0.000  -0.000
 -0.000  -0.000  -0.000   7.784  -0.000  -0.000  14.515  -0.000
 -0.000  -0.000  -0.000  -0.000   7.784  -0.000  -0.000  14.515
 pseudopotential strength for first ion, spin component:           2
 18.401  25.673  -0.000  -0.000  -0.000  -0.000  -0.000  -0.000
 25.673  35.823  -0.000  -0.000  -0.000  -0.000  -0.000  -0.000
 -0.000  -0.000   4.177  -0.000  -0.000   7.784  -0.000  -0.000
 -0.000  -0.000  -0.000   4.177  -0.000  -0.000   7.784  -0.000
 -0.000  -0.000  -0.000  -0.000   4.177  -0.000  -0.000   7.784
 -0.000  -0.000   7.784  -0.000  -0.000  14.515  -0.000  -0.000
 -0.000  -0.000  -0.000   7.784  -0.000  -0.000  14.515  -0.000
 -0.000  -0.000  -0.000  -0.000   7.784  -0.000  -0.000  14.515
 total augmentation occupancy for first ion, spin component:           1
  2.000   0.000   0.000   0.000   0.000   0.000   0.000   0.000
  0.000   0.000   0.000   0.000   0.000   0.000   0.000   0.000
  0.000   0.000   0.667   0.000   0.000   0.000   0.000   0.000
  0.000   0.000   0.000   0.667   0.000   0.000   0.000   0.000
  0.000   0.000   0.000   0.000   0.667   0.000   0.000   0.000
  0.000   0.000   0.000   0.000   0.000   0.000   0.000   0.000
  0.000   0.000   0.000   0.000   0.000   0.000   0.000   0.000
  0.000   0.000   0.000   0.000   0.000   0.000   0.000   0.000
 total augmentation occupancy for first ion, spin component:           2
  0.300   0.000   0.000   0.000   0.000   0.000   0.000   0.000
  0.000   0.000   0.000   0.000   0.000   0.000   0.000   0.000
  0.000   0.000   0.100   0.000   0.000   0.000   0.000   0.000
  0.000   0.000   0.000   0.100   0.000   0.000   0.000   0.000
  0.000   0.000   0.000   0.000   0.100   0.000   0.000   0.000
  0.000   0.000   0.000   0.000   0.000   0.000   0.000   0.000
  0.000   0.000   0.000   0.000   0.000   0.000   0.000   0.000
  0.000   0.000   0.000   0.000   0.000   0.000   0.000   0.000


------------------------ aborting loop because EDIFF is reached ----------------------------------------


 


 total charge     
 
# of ion     s       p       d       tot
----------------------------------------
  1        0.739   0.963   0.000   1.702
  2        0.739   0.963   0.000   1.702
------------------------------------------------
tot        1.478   1.926   0.000   3.404
 


 magnetization (x)
 
# of ion     s       p       d       tot
----------------------------------------
  1        0.000   0.000   0.000   0.000
  2        0.000   0.000   0.000   0.000
------------------------------------------------
tot        0.000   0.000   0.000   0.000
 
    CHARGE:  cpu time    0.1800: real time    0.1861
    FORLOC:  cpu time    0.0002: real time    0.0012
    FORNL :  cpu time    1.1284: real time    1.1322
    STRESS:  cpu time    3.3632: real time    3.3723
    FORCOR:  cpu time    0.0076: real time    0.0100
    FORHAR:  cpu time    0.0012: real time    0.0033
    OFIELD:  cpu time    0.0001: real time    0.0005

  DFT-D2 method for vdW energy calculation
  -------------------------------------------------------------------

  Parameters of vdW forcefield:
         C6(Jnm^6/mol)     R0(A)
   -----------------------------
   Si       9.230          1.716

  IVDW =   1
  VDW_RADIUS =    50.000 A
  VDW_S6 =     0.750
  VDW_SR =     1.000
  VDW_D =    20.000
  LVDW_EWALD = F

  Number of pair interactions contributing to vdW energy:   39400
  Edisp (eV):   -0.46174
    FORVDW:  cpu time    0.0076: real time    0.0093

  FORCE on cell =-STRESS in cart. coord.  units (eV):
  Direction    XX          YY          ZZ          XY          YZ          ZX
  --------------------------------------------------------------------------------------
  Alpha Z     3.39896     3.39896     3.39896
  Ewald     -76.44976   -76.44976   -76.44976     0.00001     0.00000     0.00001
  Hartree     5.00082     5.00082     5.00082    -0.00000    -0.00000    -0.00000
  E(xc)     -25.42784   -25.42784   -25.42784     0.00000     0.00000     0.00000
  Local     -29.12828   -29.12829   -29.12829     0.00000     0.00000     0.00000
  n-local    75.81977    79.10295    77.89560    -1.10833     1.17026    -2.19701
  augment   -11.50962   -11.50961   -11.50961    -0.00001    -0.00000    -0.00000
  Kinetic    55.92177    57.17796    57.98123    -1.81992    -0.73800    -2.87913
  Fock        0.00000     0.00000     0.00000     0.00000     0.00000     0.00000
  vdW        -0.73866    -0.73866    -0.73866     0.00000     0.00000     0.00000
  -------------------------------------------------------------------------------------
  Total      -0.22129    -0.22129    -0.22129    -0.00000    -0.00000     0.00000
  in kB      -8.94952    -8.94952    -8.94952    -0.00000    -0.00000     0.00000
  external pressure =       -8.95 kB  Pullay stress =        0.00 kB


 VOLUME and BASIS-vectors are now :
 -----------------------------------------------------------------------------
  energy-cutoff  :      520.00
  volume of cell :       39.62
      direct lattice vectors                 reciprocal lattice vectors
     3.826436980  0.000000000  0.000000000     0.261339728 -0.150884562 -0.106691497
     1.913218490  3.313791631 -0.000000000     0.000000000  0.301769125 -0.106691497
     1.913218490  1.104597210  3.124272711     0.000000000  0.000000000  0.320074492

  length of vectors
     3.826436980  3.826436980  3.826436980     0.320074492  0.320074492  0.320074492


 FORCES acting on ions
    electron-ion (+dipol)            ewald-force                    non-local-force                 convergence-correction
 -----------------------------------------------------------------------------------------------
   0.584E-05 0.288E-05 0.448E-06   0.294E-05 0.510E-06 0.775E-07   -.798E-16 0.144E-15 0.486E-16   -.146E-05 -.608E-06 -.948E-07
   -.252E-06 0.182E-05 0.299E-06   -.294E-05 -.510E-06 -.775E-07   0.108E-15 -.123E-15 -.486E-16   0.406E-06 -.282E-06 -.466E-07
 -----------------------------------------------------------------------------------------------
   0.558E-05 0.470E-05 0.747E-06   -.506E-15 0.960E-17 -.105E-15   0.278E-16 0.208E-16 0.000E+00   -.106E-05 -.890E-06 -.141E-06
 
 
 POSITION                                       TOTAL-FORCE (eV/Angst)
 -----------------------------------------------------------------------------------
      5.73966      3.31379      2.34320         0.000000      0.000000      0.000000
      3.82644      2.20919      1.56214        -0.000000     -0.000000     -0.000000
 -----------------------------------------------------------------------------------
    total drift:                                0.000005      0.000004      0.000001


--------------------------------------------------------------------------------------------------------



  FREE ENERGIE OF THE ION-ELECTRON SYSTEM (eV)
  ---------------------------------------------------
  free  energy   TOTEN  =       -11.50958684 eV

  energy  without entropy=      -11.50958684  energy(sigma->0) =      -11.50958684
 


--------------------------------------------------------------------------------------------------------


    POTLOK:  cpu time    0.0126: real time    0.0131


--------------------------------------------------------------------------------------------------------


     LOOP+:  cpu time   86.7466: real time   87.0575
    4ORBIT:  cpu time    0.0000: real time    0.0000
 


 total charge     
 
# of ion     s       p       d       tot
----------------------------------------
  1        0.739   0.963   0.000   1.702
  2        0.739   0.963   0.000   1.702
------------------------------------------------
tot        1.478   1.926   0.000   3.404
 


 magnetization (x)
 
# of ion     s       p       d       tot
----------------------------------------
  1        0.000   0.000   0.000   0.000
  2        0.000   0.000   0.000   0.000
------------------------------------------------
tot        0.000   0.000   0.000   0.000
 

 total amount of memory used by VASP on root node    48007. kBytes
========================================================================

   base      :      30000. kBytes
   nonlr-proj:        702. kBytes
   fftplans  :        303. kBytes
   grid      :       2245. kBytes
   one-center:         12. kBytes
   wavefun   :      14745. kBytes
 
  
  
 General timing and accounting informations for this job:
 ========================================================
  
                  Total CPU time used (sec):       98.137
                            User time (sec):       91.234
                          System time (sec):        6.903
                         Elapsed time (sec):       98.508
  
                   Maximum memory used (kb):       95708.
                   Average memory used (kb):           0.
  
                          Minor page faults:       312214
                          Major page faults:            0
                 Voluntary context switches:         1491
