unknown system                          
           1
     3.826437    0.000000    0.000000
     1.913218    3.313792   -0.000000
     1.913218    1.104597    3.124273
   Si
   2
Direct configuration=     1
   0.74999998  0.74999998  0.75000000
   0.50000001  0.49999999  0.50000000
