   2   2   1   0
  0.7411054E+03  0.5024975E-09  0.5024975E-09  0.6778156E-08  0.5000000E-15
  1.000000000000000E-004
  CAR 
 unknown system                          
      4.72228496    -62.56318048 1000     -5.33970050      1.00000000
    -62.563  0.0000E+00  0.0000E+00
    -62.496  0.0000E+00  0.0000E+00
    -62.428  0.0000E+00  0.0000E+00
    -62.361  0.0000E+00  0.0000E+00
    -62.294  0.0000E+00  0.0000E+00
    -62.226  0.0000E+00  0.0000E+00
    -62.159  0.0000E+00  0.0000E+00
    -62.092  0.0000E+00  0.0000E+00
    -62.024  0.0000E+00  0.0000E+00
    -61.957  0.0000E+00  0.0000E+00
    -61.890  0.0000E+00  0.0000E+00
    -61.822  0.0000E+00  0.0000E+00
    -61.755  0.0000E+00  0.0000E+00
    -61.688  0.0000E+00  0.0000E+00
    -61.620  0.0000E+00  0.0000E+00
    -61.553  0.0000E+00  0.0000E+00
    -61.486  0.0000E+00  0.0000E+00
    -61.418  0.0000E+00  0.0000E+00
    -61.351  0.0000E+00  0.0000E+00
    -61.283  0.0000E+00  0.0000E+00
    -61.216  0.0000E+00  0.0000E+00
    -61.149  0.0000E+00  0.0000E+00
    -61.081  0.0000E+00  0.0000E+00
    -61.014  0.0000E+00  0.0000E+00
    -60.947  0.0000E+00  0.0000E+00
    -60.879  0.0000E+00  0.0000E+00
    -60.812  0.0000E+00  0.0000E+00
    -60.745  0.0000E+00  0.0000E+00
    -60.677  0.0000E+00  0.0000E+00
    -60.610  0.0000E+00  0.0000E+00
    -60.543  0.0000E+00  0.0000E+00
    -60.475  0.0000E+00  0.0000E+00
    -60.408  0.0000E+00  0.0000E+00
    -60.341  0.0000E+00  0.0000E+00
    -60.273  0.0000E+00  0.0000E+00
    -60.206  0.0000E+00  0.0000E+00
    -60.138  0.0000E+00  0.0000E+00
    -60.071  0.0000E+00  0.0000E+00
    -60.004  0.0000E+00  0.0000E+00
    -59.936 -0.4946E-30 -0.3331E-31
    -59.869 -0.8861E-21 -0.5968E-22
    -59.802 -0.4075E-13 -0.2745E-14
    -59.734 -0.4508E-07 -0.3036E-08
    -59.667 -0.1211E-02 -0.8160E-04
    -59.600 -0.6225E+00 -0.4201E-01
    -59.532  0.6315E+01  0.3833E+00
    -59.465  0.5177E+02  0.3870E+01
    -59.398  0.1925E+02  0.5166E+01
    -59.330  0.1329E+02  0.6061E+01
    -59.263 -0.8968E+00  0.6001E+01
    -59.196 -0.8977E-02  0.6000E+01
    -59.128 -0.1302E-05  0.6000E+01
    -59.061 -0.4275E-11  0.6000E+01
    -58.993  0.0000E+00  0.6000E+01
    -58.926  0.0000E+00  0.6000E+01
    -58.859  0.0000E+00  0.6000E+01
    -58.791  0.0000E+00  0.6000E+01
    -58.724  0.0000E+00  0.6000E+01
    -58.657  0.0000E+00  0.6000E+01
    -58.589  0.0000E+00  0.6000E+01
    -58.522  0.0000E+00  0.6000E+01
    -58.455  0.0000E+00  0.6000E+01
    -58.387  0.0000E+00  0.6000E+01
    -58.320  0.0000E+00  0.6000E+01
    -58.253  0.0000E+00  0.6000E+01
    -58.185  0.0000E+00  0.6000E+01
    -58.118  0.0000E+00  0.6000E+01
    -58.051  0.0000E+00  0.6000E+01
    -57.983  0.0000E+00  0.6000E+01
    -57.916  0.0000E+00  0.6000E+01
    -57.848  0.0000E+00  0.6000E+01
    -57.781  0.0000E+00  0.6000E+01
    -57.714  0.0000E+00  0.6000E+01
    -57.646  0.0000E+00  0.6000E+01
    -57.579  0.0000E+00  0.6000E+01
    -57.512  0.0000E+00  0.6000E+01
    -57.444  0.0000E+00  0.6000E+01
    -57.377  0.0000E+00  0.6000E+01
    -57.310  0.0000E+00  0.6000E+01
    -57.242  0.0000E+00  0.6000E+01
    -57.175  0.0000E+00  0.6000E+01
    -57.108  0.0000E+00  0.6000E+01
    -57.040  0.0000E+00  0.6000E+01
    -56.973  0.0000E+00  0.6000E+01
    -56.906  0.0000E+00  0.6000E+01
    -56.838  0.0000E+00  0.6000E+01
    -56.771  0.0000E+00  0.6000E+01
    -56.703  0.0000E+00  0.6000E+01
    -56.636  0.0000E+00  0.6000E+01
    -56.569  0.0000E+00  0.6000E+01
    -56.501  0.0000E+00  0.6000E+01
    -56.434  0.0000E+00  0.6000E+01
    -56.367  0.0000E+00  0.6000E+01
    -56.299  0.0000E+00  0.6000E+01
    -56.232  0.0000E+00  0.6000E+01
    -56.165  0.0000E+00  0.6000E+01
    -56.097  0.0000E+00  0.6000E+01
    -56.030  0.0000E+00  0.6000E+01
    -55.963  0.0000E+00  0.6000E+01
    -55.895  0.0000E+00  0.6000E+01
    -55.828  0.0000E+00  0.6000E+01
    -55.761  0.0000E+00  0.6000E+01
    -55.693  0.0000E+00  0.6000E+01
    -55.626  0.0000E+00  0.6000E+01
    -55.558  0.0000E+00  0.6000E+01
    -55.491  0.0000E+00  0.6000E+01
    -55.424  0.0000E+00  0.6000E+01
    -55.356  0.0000E+00  0.6000E+01
    -55.289  0.0000E+00  0.6000E+01
    -55.222  0.0000E+00  0.6000E+01
    -55.154  0.0000E+00  0.6000E+01
    -55.087  0.0000E+00  0.6000E+01
    -55.020  0.0000E+00  0.6000E+01
    -54.952  0.0000E+00  0.6000E+01
    -54.885  0.0000E+00  0.6000E+01
    -54.818  0.0000E+00  0.6000E+01
    -54.750  0.0000E+00  0.6000E+01
    -54.683  0.0000E+00  0.6000E+01
    -54.616  0.0000E+00  0.6000E+01
    -54.548  0.0000E+00  0.6000E+01
    -54.481  0.0000E+00  0.6000E+01
    -54.413  0.0000E+00  0.6000E+01
    -54.346  0.0000E+00  0.6000E+01
    -54.279  0.0000E+00  0.6000E+01
    -54.211  0.0000E+00  0.6000E+01
    -54.144  0.0000E+00  0.6000E+01
    -54.077  0.0000E+00  0.6000E+01
    -54.009  0.0000E+00  0.6000E+01
    -53.942  0.0000E+00  0.6000E+01
    -53.875  0.0000E+00  0.6000E+01
    -53.807  0.0000E+00  0.6000E+01
    -53.740  0.0000E+00  0.6000E+01
    -53.673  0.0000E+00  0.6000E+01
    -53.605  0.0000E+00  0.6000E+01
    -53.538  0.0000E+00  0.6000E+01
    -53.471  0.0000E+00  0.6000E+01
    -53.403  0.0000E+00  0.6000E+01
    -53.336  0.0000E+00  0.6000E+01
    -53.268  0.0000E+00  0.6000E+01
    -53.201  0.0000E+00  0.6000E+01
    -53.134  0.0000E+00  0.6000E+01
    -53.066  0.0000E+00  0.6000E+01
    -52.999  0.0000E+00  0.6000E+01
    -52.932  0.0000E+00  0.6000E+01
    -52.864  0.0000E+00  0.6000E+01
    -52.797  0.0000E+00  0.6000E+01
    -52.730  0.0000E+00  0.6000E+01
    -52.662  0.0000E+00  0.6000E+01
    -52.595  0.0000E+00  0.6000E+01
    -52.528  0.0000E+00  0.6000E+01
    -52.460  0.0000E+00  0.6000E+01
    -52.393  0.0000E+00  0.6000E+01
    -52.326  0.0000E+00  0.6000E+01
    -52.258  0.0000E+00  0.6000E+01
    -52.191  0.0000E+00  0.6000E+01
    -52.123  0.0000E+00  0.6000E+01
    -52.056  0.0000E+00  0.6000E+01
    -51.989  0.0000E+00  0.6000E+01
    -51.921  0.0000E+00  0.6000E+01
    -51.854  0.0000E+00  0.6000E+01
    -51.787  0.0000E+00  0.6000E+01
    -51.719  0.0000E+00  0.6000E+01
    -51.652  0.0000E+00  0.6000E+01
    -51.585  0.0000E+00  0.6000E+01
    -51.517  0.0000E+00  0.6000E+01
    -51.450  0.0000E+00  0.6000E+01
    -51.383  0.0000E+00  0.6000E+01
    -51.315  0.0000E+00  0.6000E+01
    -51.248  0.0000E+00  0.6000E+01
    -51.181  0.0000E+00  0.6000E+01
    -51.113  0.0000E+00  0.6000E+01
    -51.046  0.0000E+00  0.6000E+01
    -50.978  0.0000E+00  0.6000E+01
    -50.911  0.0000E+00  0.6000E+01
    -50.844  0.0000E+00  0.6000E+01
    -50.776  0.0000E+00  0.6000E+01
    -50.709  0.0000E+00  0.6000E+01
    -50.642  0.0000E+00  0.6000E+01
    -50.574  0.0000E+00  0.6000E+01
    -50.507  0.0000E+00  0.6000E+01
    -50.440  0.0000E+00  0.6000E+01
    -50.372  0.0000E+00  0.6000E+01
    -50.305  0.0000E+00  0.6000E+01
    -50.238  0.0000E+00  0.6000E+01
    -50.170  0.0000E+00  0.6000E+01
    -50.103  0.0000E+00  0.6000E+01
    -50.036  0.0000E+00  0.6000E+01
    -49.968  0.0000E+00  0.6000E+01
    -49.901  0.0000E+00  0.6000E+01
    -49.833  0.0000E+00  0.6000E+01
    -49.766  0.0000E+00  0.6000E+01
    -49.699  0.0000E+00  0.6000E+01
    -49.631  0.0000E+00  0.6000E+01
    -49.564  0.0000E+00  0.6000E+01
    -49.497  0.0000E+00  0.6000E+01
    -49.429  0.0000E+00  0.6000E+01
    -49.362  0.0000E+00  0.6000E+01
    -49.295  0.0000E+00  0.6000E+01
    -49.227  0.0000E+00  0.6000E+01
    -49.160  0.0000E+00  0.6000E+01
    -49.093  0.0000E+00  0.6000E+01
    -49.025  0.0000E+00  0.6000E+01
    -48.958  0.0000E+00  0.6000E+01
    -48.891  0.0000E+00  0.6000E+01
    -48.823  0.0000E+00  0.6000E+01
    -48.756  0.0000E+00  0.6000E+01
    -48.688  0.0000E+00  0.6000E+01
    -48.621  0.0000E+00  0.6000E+01
    -48.554  0.0000E+00  0.6000E+01
    -48.486  0.0000E+00  0.6000E+01
    -48.419  0.0000E+00  0.6000E+01
    -48.352  0.0000E+00  0.6000E+01
    -48.284  0.0000E+00  0.6000E+01
    -48.217  0.0000E+00  0.6000E+01
    -48.150  0.0000E+00  0.6000E+01
    -48.082  0.0000E+00  0.6000E+01
    -48.015  0.0000E+00  0.6000E+01
    -47.948  0.0000E+00  0.6000E+01
    -47.880  0.0000E+00  0.6000E+01
    -47.813  0.0000E+00  0.6000E+01
    -47.746  0.0000E+00  0.6000E+01
    -47.678  0.0000E+00  0.6000E+01
    -47.611  0.0000E+00  0.6000E+01
    -47.544  0.0000E+00  0.6000E+01
    -47.476  0.0000E+00  0.6000E+01
    -47.409  0.0000E+00  0.6000E+01
    -47.341  0.0000E+00  0.6000E+01
    -47.274  0.0000E+00  0.6000E+01
    -47.207  0.0000E+00  0.6000E+01
    -47.139  0.0000E+00  0.6000E+01
    -47.072  0.0000E+00  0.6000E+01
    -47.005  0.0000E+00  0.6000E+01
    -46.937  0.0000E+00  0.6000E+01
    -46.870  0.0000E+00  0.6000E+01
    -46.803  0.0000E+00  0.6000E+01
    -46.735  0.0000E+00  0.6000E+01
    -46.668  0.0000E+00  0.6000E+01
    -46.601  0.0000E+00  0.6000E+01
    -46.533  0.0000E+00  0.6000E+01
    -46.466  0.0000E+00  0.6000E+01
    -46.399  0.0000E+00  0.6000E+01
    -46.331  0.0000E+00  0.6000E+01
    -46.264  0.0000E+00  0.6000E+01
    -46.196  0.0000E+00  0.6000E+01
    -46.129  0.0000E+00  0.6000E+01
    -46.062  0.0000E+00  0.6000E+01
    -45.994  0.0000E+00  0.6000E+01
    -45.927  0.0000E+00  0.6000E+01
    -45.860  0.0000E+00  0.6000E+01
    -45.792  0.0000E+00  0.6000E+01
    -45.725  0.0000E+00  0.6000E+01
    -45.658  0.0000E+00  0.6000E+01
    -45.590  0.0000E+00  0.6000E+01
    -45.523  0.0000E+00  0.6000E+01
    -45.456  0.0000E+00  0.6000E+01
    -45.388  0.0000E+00  0.6000E+01
    -45.321  0.0000E+00  0.6000E+01
    -45.254  0.0000E+00  0.6000E+01
    -45.186  0.0000E+00  0.6000E+01
    -45.119  0.0000E+00  0.6000E+01
    -45.051  0.0000E+00  0.6000E+01
    -44.984  0.0000E+00  0.6000E+01
    -44.917  0.0000E+00  0.6000E+01
    -44.849  0.0000E+00  0.6000E+01
    -44.782  0.0000E+00  0.6000E+01
    -44.715  0.0000E+00  0.6000E+01
    -44.647  0.0000E+00  0.6000E+01
    -44.580  0.0000E+00  0.6000E+01
    -44.513  0.0000E+00  0.6000E+01
    -44.445  0.0000E+00  0.6000E+01
    -44.378  0.0000E+00  0.6000E+01
    -44.311  0.0000E+00  0.6000E+01
    -44.243  0.0000E+00  0.6000E+01
    -44.176  0.0000E+00  0.6000E+01
    -44.109  0.0000E+00  0.6000E+01
    -44.041  0.0000E+00  0.6000E+01
    -43.974  0.0000E+00  0.6000E+01
    -43.906  0.0000E+00  0.6000E+01
    -43.839  0.0000E+00  0.6000E+01
    -43.772  0.0000E+00  0.6000E+01
    -43.704  0.0000E+00  0.6000E+01
    -43.637  0.0000E+00  0.6000E+01
    -43.570  0.0000E+00  0.6000E+01
    -43.502  0.0000E+00  0.6000E+01
    -43.435  0.0000E+00  0.6000E+01
    -43.368  0.0000E+00  0.6000E+01
    -43.300  0.0000E+00  0.6000E+01
    -43.233  0.0000E+00  0.6000E+01
    -43.166  0.0000E+00  0.6000E+01
    -43.098  0.0000E+00  0.6000E+01
    -43.031  0.0000E+00  0.6000E+01
    -42.964  0.0000E+00  0.6000E+01
    -42.896  0.0000E+00  0.6000E+01
    -42.829  0.0000E+00  0.6000E+01
    -42.761  0.0000E+00  0.6000E+01
    -42.694  0.0000E+00  0.6000E+01
    -42.627  0.0000E+00  0.6000E+01
    -42.559  0.0000E+00  0.6000E+01
    -42.492  0.0000E+00  0.6000E+01
    -42.425  0.0000E+00  0.6000E+01
    -42.357  0.0000E+00  0.6000E+01
    -42.290  0.0000E+00  0.6000E+01
    -42.223  0.0000E+00  0.6000E+01
    -42.155  0.0000E+00  0.6000E+01
    -42.088  0.0000E+00  0.6000E+01
    -42.021  0.0000E+00  0.6000E+01
    -41.953  0.0000E+00  0.6000E+01
    -41.886  0.0000E+00  0.6000E+01
    -41.819  0.0000E+00  0.6000E+01
    -41.751  0.0000E+00  0.6000E+01
    -41.684  0.0000E+00  0.6000E+01
    -41.616  0.0000E+00  0.6000E+01
    -41.549  0.0000E+00  0.6000E+01
    -41.482  0.0000E+00  0.6000E+01
    -41.414  0.0000E+00  0.6000E+01
    -41.347  0.0000E+00  0.6000E+01
    -41.280  0.0000E+00  0.6000E+01
    -41.212  0.0000E+00  0.6000E+01
    -41.145  0.0000E+00  0.6000E+01
    -41.078  0.0000E+00  0.6000E+01
    -41.010  0.0000E+00  0.6000E+01
    -40.943  0.0000E+00  0.6000E+01
    -40.876  0.0000E+00  0.6000E+01
    -40.808  0.0000E+00  0.6000E+01
    -40.741  0.0000E+00  0.6000E+01
    -40.674  0.0000E+00  0.6000E+01
    -40.606  0.0000E+00  0.6000E+01
    -40.539  0.0000E+00  0.6000E+01
    -40.471  0.0000E+00  0.6000E+01
    -40.404  0.0000E+00  0.6000E+01
    -40.337  0.0000E+00  0.6000E+01
    -40.269  0.0000E+00  0.6000E+01
    -40.202  0.0000E+00  0.6000E+01
    -40.135  0.0000E+00  0.6000E+01
    -40.067  0.0000E+00  0.6000E+01
    -40.000  0.0000E+00  0.6000E+01
    -39.933  0.0000E+00  0.6000E+01
    -39.865  0.0000E+00  0.6000E+01
    -39.798  0.0000E+00  0.6000E+01
    -39.731  0.0000E+00  0.6000E+01
    -39.663  0.0000E+00  0.6000E+01
    -39.596  0.0000E+00  0.6000E+01
    -39.529  0.0000E+00  0.6000E+01
    -39.461  0.0000E+00  0.6000E+01
    -39.394  0.0000E+00  0.6000E+01
    -39.326  0.0000E+00  0.6000E+01
    -39.259  0.0000E+00  0.6000E+01
    -39.192  0.0000E+00  0.6000E+01
    -39.124  0.0000E+00  0.6000E+01
    -39.057  0.0000E+00  0.6000E+01
    -38.990  0.0000E+00  0.6000E+01
    -38.922  0.0000E+00  0.6000E+01
    -38.855  0.0000E+00  0.6000E+01
    -38.788  0.0000E+00  0.6000E+01
    -38.720  0.0000E+00  0.6000E+01
    -38.653  0.0000E+00  0.6000E+01
    -38.586  0.0000E+00  0.6000E+01
    -38.518  0.0000E+00  0.6000E+01
    -38.451  0.0000E+00  0.6000E+01
    -38.384  0.0000E+00  0.6000E+01
    -38.316  0.0000E+00  0.6000E+01
    -38.249  0.0000E+00  0.6000E+01
    -38.181  0.0000E+00  0.6000E+01
    -38.114  0.0000E+00  0.6000E+01
    -38.047  0.0000E+00  0.6000E+01
    -37.979  0.0000E+00  0.6000E+01
    -37.912  0.0000E+00  0.6000E+01
    -37.845  0.0000E+00  0.6000E+01
    -37.777  0.0000E+00  0.6000E+01
    -37.710  0.0000E+00  0.6000E+01
    -37.643  0.0000E+00  0.6000E+01
    -37.575  0.0000E+00  0.6000E+01
    -37.508  0.0000E+00  0.6000E+01
    -37.441  0.0000E+00  0.6000E+01
    -37.373  0.0000E+00  0.6000E+01
    -37.306  0.0000E+00  0.6000E+01
    -37.239  0.0000E+00  0.6000E+01
    -37.171  0.0000E+00  0.6000E+01
    -37.104  0.0000E+00  0.6000E+01
    -37.036  0.0000E+00  0.6000E+01
    -36.969  0.0000E+00  0.6000E+01
    -36.902  0.0000E+00  0.6000E+01
    -36.834  0.0000E+00  0.6000E+01
    -36.767  0.0000E+00  0.6000E+01
    -36.700  0.0000E+00  0.6000E+01
    -36.632  0.0000E+00  0.6000E+01
    -36.565  0.0000E+00  0.6000E+01
    -36.498  0.0000E+00  0.6000E+01
    -36.430  0.0000E+00  0.6000E+01
    -36.363  0.0000E+00  0.6000E+01
    -36.296  0.0000E+00  0.6000E+01
    -36.228  0.0000E+00  0.6000E+01
    -36.161  0.0000E+00  0.6000E+01
    -36.094  0.0000E+00  0.6000E+01
    -36.026  0.0000E+00  0.6000E+01
    -35.959  0.0000E+00  0.6000E+01
    -35.891  0.0000E+00  0.6000E+01
    -35.824  0.0000E+00  0.6000E+01
    -35.757  0.0000E+00  0.6000E+01
    -35.689  0.0000E+00  0.6000E+01
    -35.622  0.0000E+00  0.6000E+01
    -35.555  0.0000E+00  0.6000E+01
    -35.487  0.0000E+00  0.6000E+01
    -35.420  0.0000E+00  0.6000E+01
    -35.353  0.0000E+00  0.6000E+01
    -35.285  0.0000E+00  0.6000E+01
    -35.218  0.0000E+00  0.6000E+01
    -35.151  0.0000E+00  0.6000E+01
    -35.083  0.0000E+00  0.6000E+01
    -35.016  0.0000E+00  0.6000E+01
    -34.949  0.0000E+00  0.6000E+01
    -34.881  0.0000E+00  0.6000E+01
    -34.814  0.0000E+00  0.6000E+01
    -34.746  0.0000E+00  0.6000E+01
    -34.679  0.0000E+00  0.6000E+01
    -34.612  0.0000E+00  0.6000E+01
    -34.544  0.0000E+00  0.6000E+01
    -34.477  0.0000E+00  0.6000E+01
    -34.410  0.0000E+00  0.6000E+01
    -34.342  0.0000E+00  0.6000E+01
    -34.275  0.0000E+00  0.6000E+01
    -34.208  0.0000E+00  0.6000E+01
    -34.140  0.0000E+00  0.6000E+01
    -34.073  0.0000E+00  0.6000E+01
    -34.006  0.0000E+00  0.6000E+01
    -33.938  0.0000E+00  0.6000E+01
    -33.871  0.0000E+00  0.6000E+01
    -33.804  0.0000E+00  0.6000E+01
    -33.736  0.0000E+00  0.6000E+01
    -33.669  0.0000E+00  0.6000E+01
    -33.601  0.0000E+00  0.6000E+01
    -33.534  0.0000E+00  0.6000E+01
    -33.467  0.0000E+00  0.6000E+01
    -33.399  0.0000E+00  0.6000E+01
    -33.332  0.0000E+00  0.6000E+01
    -33.265  0.0000E+00  0.6000E+01
    -33.197  0.0000E+00  0.6000E+01
    -33.130  0.0000E+00  0.6000E+01
    -33.063  0.0000E+00  0.6000E+01
    -32.995  0.0000E+00  0.6000E+01
    -32.928  0.0000E+00  0.6000E+01
    -32.861  0.0000E+00  0.6000E+01
    -32.793  0.0000E+00  0.6000E+01
    -32.726  0.0000E+00  0.6000E+01
    -32.659  0.0000E+00  0.6000E+01
    -32.591  0.0000E+00  0.6000E+01
    -32.524  0.0000E+00  0.6000E+01
    -32.456  0.0000E+00  0.6000E+01
    -32.389  0.0000E+00  0.6000E+01
    -32.322  0.0000E+00  0.6000E+01
    -32.254  0.0000E+00  0.6000E+01
    -32.187  0.0000E+00  0.6000E+01
    -32.120  0.0000E+00  0.6000E+01
    -32.052  0.0000E+00  0.6000E+01
    -31.985  0.0000E+00  0.6000E+01
    -31.918  0.0000E+00  0.6000E+01
    -31.850  0.0000E+00  0.6000E+01
    -31.783  0.0000E+00  0.6000E+01
    -31.716  0.0000E+00  0.6000E+01
    -31.648  0.0000E+00  0.6000E+01
    -31.581  0.0000E+00  0.6000E+01
    -31.514  0.0000E+00  0.6000E+01
    -31.446  0.0000E+00  0.6000E+01
    -31.379  0.0000E+00  0.6000E+01
    -31.311  0.0000E+00  0.6000E+01
    -31.244  0.0000E+00  0.6000E+01
    -31.177  0.0000E+00  0.6000E+01
    -31.109  0.0000E+00  0.6000E+01
    -31.042  0.0000E+00  0.6000E+01
    -30.975  0.0000E+00  0.6000E+01
    -30.907  0.0000E+00  0.6000E+01
    -30.840  0.0000E+00  0.6000E+01
    -30.773  0.0000E+00  0.6000E+01
    -30.705  0.0000E+00  0.6000E+01
    -30.638  0.0000E+00  0.6000E+01
    -30.571  0.0000E+00  0.6000E+01
    -30.503  0.0000E+00  0.6000E+01
    -30.436  0.0000E+00  0.6000E+01
    -30.369  0.0000E+00  0.6000E+01
    -30.301  0.0000E+00  0.6000E+01
    -30.234  0.0000E+00  0.6000E+01
    -30.166  0.0000E+00  0.6000E+01
    -30.099  0.0000E+00  0.6000E+01
    -30.032  0.0000E+00  0.6000E+01
    -29.964  0.0000E+00  0.6000E+01
    -29.897  0.0000E+00  0.6000E+01
    -29.830  0.0000E+00  0.6000E+01
    -29.762  0.0000E+00  0.6000E+01
    -29.695  0.0000E+00  0.6000E+01
    -29.628  0.0000E+00  0.6000E+01
    -29.560  0.0000E+00  0.6000E+01
    -29.493  0.0000E+00  0.6000E+01
    -29.426  0.0000E+00  0.6000E+01
    -29.358  0.0000E+00  0.6000E+01
    -29.291  0.0000E+00  0.6000E+01
    -29.224  0.0000E+00  0.6000E+01
    -29.156  0.0000E+00  0.6000E+01
    -29.089  0.0000E+00  0.6000E+01
    -29.021  0.0000E+00  0.6000E+01
    -28.954  0.0000E+00  0.6000E+01
    -28.887  0.0000E+00  0.6000E+01
    -28.819  0.0000E+00  0.6000E+01
    -28.752  0.0000E+00  0.6000E+01
    -28.685  0.0000E+00  0.6000E+01
    -28.617  0.0000E+00  0.6000E+01
    -28.550  0.0000E+00  0.6000E+01
    -28.483  0.0000E+00  0.6000E+01
    -28.415  0.0000E+00  0.6000E+01
    -28.348  0.0000E+00  0.6000E+01
    -28.281  0.0000E+00  0.6000E+01
    -28.213  0.0000E+00  0.6000E+01
    -28.146  0.0000E+00  0.6000E+01
    -28.079  0.0000E+00  0.6000E+01
    -28.011  0.0000E+00  0.6000E+01
    -27.944  0.0000E+00  0.6000E+01
    -27.876  0.0000E+00  0.6000E+01
    -27.809  0.0000E+00  0.6000E+01
    -27.742  0.0000E+00  0.6000E+01
    -27.674  0.0000E+00  0.6000E+01
    -27.607  0.0000E+00  0.6000E+01
    -27.540  0.0000E+00  0.6000E+01
    -27.472  0.0000E+00  0.6000E+01
    -27.405  0.0000E+00  0.6000E+01
    -27.338  0.0000E+00  0.6000E+01
    -27.270  0.0000E+00  0.6000E+01
    -27.203  0.0000E+00  0.6000E+01
    -27.136  0.0000E+00  0.6000E+01
    -27.068  0.0000E+00  0.6000E+01
    -27.001  0.0000E+00  0.6000E+01
    -26.934  0.0000E+00  0.6000E+01
    -26.866  0.0000E+00  0.6000E+01
    -26.799  0.0000E+00  0.6000E+01
    -26.731  0.0000E+00  0.6000E+01
    -26.664  0.0000E+00  0.6000E+01
    -26.597  0.0000E+00  0.6000E+01
    -26.529  0.0000E+00  0.6000E+01
    -26.462  0.0000E+00  0.6000E+01
    -26.395  0.0000E+00  0.6000E+01
    -26.327  0.0000E+00  0.6000E+01
    -26.260  0.0000E+00  0.6000E+01
    -26.193  0.0000E+00  0.6000E+01
    -26.125  0.0000E+00  0.6000E+01
    -26.058  0.0000E+00  0.6000E+01
    -25.991  0.0000E+00  0.6000E+01
    -25.923  0.0000E+00  0.6000E+01
    -25.856  0.0000E+00  0.6000E+01
    -25.789  0.0000E+00  0.6000E+01
    -25.721  0.0000E+00  0.6000E+01
    -25.654  0.0000E+00  0.6000E+01
    -25.586  0.0000E+00  0.6000E+01
    -25.519  0.0000E+00  0.6000E+01
    -25.452  0.0000E+00  0.6000E+01
    -25.384  0.0000E+00  0.6000E+01
    -25.317  0.0000E+00  0.6000E+01
    -25.250  0.0000E+00  0.6000E+01
    -25.182  0.0000E+00  0.6000E+01
    -25.115  0.0000E+00  0.6000E+01
    -25.048  0.0000E+00  0.6000E+01
    -24.980  0.0000E+00  0.6000E+01
    -24.913  0.0000E+00  0.6000E+01
    -24.846  0.0000E+00  0.6000E+01
    -24.778  0.0000E+00  0.6000E+01
    -24.711  0.0000E+00  0.6000E+01
    -24.644  0.0000E+00  0.6000E+01
    -24.576  0.0000E+00  0.6000E+01
    -24.509  0.0000E+00  0.6000E+01
    -24.441  0.0000E+00  0.6000E+01
    -24.374  0.0000E+00  0.6000E+01
    -24.307  0.0000E+00  0.6000E+01
    -24.239  0.0000E+00  0.6000E+01
    -24.172  0.0000E+00  0.6000E+01
    -24.105  0.0000E+00  0.6000E+01
    -24.037  0.0000E+00  0.6000E+01
    -23.970  0.0000E+00  0.6000E+01
    -23.903  0.0000E+00  0.6000E+01
    -23.835  0.0000E+00  0.6000E+01
    -23.768  0.0000E+00  0.6000E+01
    -23.701  0.0000E+00  0.6000E+01
    -23.633  0.0000E+00  0.6000E+01
    -23.566  0.0000E+00  0.6000E+01
    -23.499  0.0000E+00  0.6000E+01
    -23.431  0.0000E+00  0.6000E+01
    -23.364  0.0000E+00  0.6000E+01
    -23.296  0.0000E+00  0.6000E+01
    -23.229  0.0000E+00  0.6000E+01
    -23.162  0.0000E+00  0.6000E+01
    -23.094  0.0000E+00  0.6000E+01
    -23.027  0.0000E+00  0.6000E+01
    -22.960  0.0000E+00  0.6000E+01
    -22.892  0.0000E+00  0.6000E+01
    -22.825  0.0000E+00  0.6000E+01
    -22.758  0.0000E+00  0.6000E+01
    -22.690  0.0000E+00  0.6000E+01
    -22.623  0.0000E+00  0.6000E+01
    -22.556  0.0000E+00  0.6000E+01
    -22.488  0.0000E+00  0.6000E+01
    -22.421  0.0000E+00  0.6000E+01
    -22.354  0.0000E+00  0.6000E+01
    -22.286  0.0000E+00  0.6000E+01
    -22.219  0.0000E+00  0.6000E+01
    -22.151  0.0000E+00  0.6000E+01
    -22.084  0.0000E+00  0.6000E+01
    -22.017  0.0000E+00  0.6000E+01
    -21.949  0.0000E+00  0.6000E+01
    -21.882  0.0000E+00  0.6000E+01
    -21.815  0.0000E+00  0.6000E+01
    -21.747  0.0000E+00  0.6000E+01
    -21.680  0.0000E+00  0.6000E+01
    -21.613  0.0000E+00  0.6000E+01
    -21.545  0.0000E+00  0.6000E+01
    -21.478  0.0000E+00  0.6000E+01
    -21.411  0.0000E+00  0.6000E+01
    -21.343  0.0000E+00  0.6000E+01
    -21.276  0.0000E+00  0.6000E+01
    -21.209  0.0000E+00  0.6000E+01
    -21.141  0.0000E+00  0.6000E+01
    -21.074  0.0000E+00  0.6000E+01
    -21.006  0.0000E+00  0.6000E+01
    -20.939  0.0000E+00  0.6000E+01
    -20.872  0.0000E+00  0.6000E+01
    -20.804  0.0000E+00  0.6000E+01
    -20.737  0.0000E+00  0.6000E+01
    -20.670  0.0000E+00  0.6000E+01
    -20.602  0.0000E+00  0.6000E+01
    -20.535  0.0000E+00  0.6000E+01
    -20.468  0.0000E+00  0.6000E+01
    -20.400  0.0000E+00  0.6000E+01
    -20.333  0.0000E+00  0.6000E+01
    -20.266  0.0000E+00  0.6000E+01
    -20.198  0.0000E+00  0.6000E+01
    -20.131  0.0000E+00  0.6000E+01
    -20.064  0.0000E+00  0.6000E+01
    -19.996  0.0000E+00  0.6000E+01
    -19.929  0.0000E+00  0.6000E+01
    -19.861  0.0000E+00  0.6000E+01
    -19.794  0.0000E+00  0.6000E+01
    -19.727  0.0000E+00  0.6000E+01
    -19.659  0.0000E+00  0.6000E+01
    -19.592  0.0000E+00  0.6000E+01
    -19.525  0.0000E+00  0.6000E+01
    -19.457  0.0000E+00  0.6000E+01
    -19.390  0.0000E+00  0.6000E+01
    -19.323  0.0000E+00  0.6000E+01
    -19.255  0.0000E+00  0.6000E+01
    -19.188  0.0000E+00  0.6000E+01
    -19.121  0.0000E+00  0.6000E+01
    -19.053  0.0000E+00  0.6000E+01
    -18.986  0.0000E+00  0.6000E+01
    -18.919  0.0000E+00  0.6000E+01
    -18.851  0.0000E+00  0.6000E+01
    -18.784  0.0000E+00  0.6000E+01
    -18.716  0.0000E+00  0.6000E+01
    -18.649  0.0000E+00  0.6000E+01
    -18.582  0.0000E+00  0.6000E+01
    -18.514  0.0000E+00  0.6000E+01
    -18.447  0.0000E+00  0.6000E+01
    -18.380  0.0000E+00  0.6000E+01
    -18.312  0.0000E+00  0.6000E+01
    -18.245  0.0000E+00  0.6000E+01
    -18.178  0.0000E+00  0.6000E+01
    -18.110  0.0000E+00  0.6000E+01
    -18.043  0.0000E+00  0.6000E+01
    -17.976  0.0000E+00  0.6000E+01
    -17.908  0.0000E+00  0.6000E+01
    -17.841  0.0000E+00  0.6000E+01
    -17.774  0.0000E+00  0.6000E+01
    -17.706  0.0000E+00  0.6000E+01
    -17.639  0.0000E+00  0.6000E+01
    -17.571  0.0000E+00  0.6000E+01
    -17.504  0.0000E+00  0.6000E+01
    -17.437  0.0000E+00  0.6000E+01
    -17.369  0.0000E+00  0.6000E+01
    -17.302  0.0000E+00  0.6000E+01
    -17.235  0.0000E+00  0.6000E+01
    -17.167  0.0000E+00  0.6000E+01
    -17.100  0.0000E+00  0.6000E+01
    -17.033  0.0000E+00  0.6000E+01
    -16.965  0.0000E+00  0.6000E+01
    -16.898  0.0000E+00  0.6000E+01
    -16.831  0.0000E+00  0.6000E+01
    -16.763  0.0000E+00  0.6000E+01
    -16.696  0.0000E+00  0.6000E+01
    -16.629  0.0000E+00  0.6000E+01
    -16.561  0.0000E+00  0.6000E+01
    -16.494  0.0000E+00  0.6000E+01
    -16.426  0.0000E+00  0.6000E+01
    -16.359  0.0000E+00  0.6000E+01
    -16.292  0.0000E+00  0.6000E+01
    -16.224  0.0000E+00  0.6000E+01
    -16.157  0.0000E+00  0.6000E+01
    -16.090  0.0000E+00  0.6000E+01
    -16.022  0.0000E+00  0.6000E+01
    -15.955  0.0000E+00  0.6000E+01
    -15.888  0.0000E+00  0.6000E+01
    -15.820  0.0000E+00  0.6000E+01
    -15.753  0.0000E+00  0.6000E+01
    -15.686  0.0000E+00  0.6000E+01
    -15.618  0.0000E+00  0.6000E+01
    -15.551 -0.4998E-29  0.6000E+01
    -15.484 -0.2747E-20  0.6000E+01
    -15.416 -0.3977E-13  0.6000E+01
    -15.349 -0.1587E-07  0.6000E+01
    -15.282 -0.1652E-03  0.6000E+01
    -15.214 -0.3828E-01  0.5997E+01
    -15.147  0.3217E+00  0.6019E+01
    -15.079  0.3750E+01  0.6272E+01
    -15.012  0.5963E+01  0.6673E+01
    -14.945  0.1284E+02  0.7538E+01
    -14.877  0.7266E+01  0.8027E+01
    -14.810 -0.3948E+00  0.8001E+01
    -14.743 -0.1129E-01  0.8000E+01
    -14.675 -0.4814E-05  0.8000E+01
    -14.608 -0.5232E-10  0.8000E+01
    -14.541  0.0000E+00  0.8000E+01
    -14.473  0.0000E+00  0.8000E+01
    -14.406  0.0000E+00  0.8000E+01
    -14.339  0.0000E+00  0.8000E+01
    -14.271  0.0000E+00  0.8000E+01
    -14.204  0.0000E+00  0.8000E+01
    -14.137  0.0000E+00  0.8000E+01
    -14.069  0.0000E+00  0.8000E+01
    -14.002  0.0000E+00  0.8000E+01
    -13.934  0.0000E+00  0.8000E+01
    -13.867  0.0000E+00  0.8000E+01
    -13.800  0.0000E+00  0.8000E+01
    -13.732  0.0000E+00  0.8000E+01
    -13.665  0.0000E+00  0.8000E+01
    -13.598  0.0000E+00  0.8000E+01
    -13.530  0.0000E+00  0.8000E+01
    -13.463  0.0000E+00  0.8000E+01
    -13.396  0.0000E+00  0.8000E+01
    -13.328  0.0000E+00  0.8000E+01
    -13.261  0.0000E+00  0.8000E+01
    -13.194  0.0000E+00  0.8000E+01
    -13.126  0.0000E+00  0.8000E+01
    -13.059  0.0000E+00  0.8000E+01
    -12.992  0.0000E+00  0.8000E+01
    -12.924  0.0000E+00  0.8000E+01
    -12.857  0.0000E+00  0.8000E+01
    -12.789  0.0000E+00  0.8000E+01
    -12.722  0.0000E+00  0.8000E+01
    -12.655  0.0000E+00  0.8000E+01
    -12.587  0.0000E+00  0.8000E+01
    -12.520  0.0000E+00  0.8000E+01
    -12.453  0.0000E+00  0.8000E+01
    -12.385  0.0000E+00  0.8000E+01
    -12.318  0.0000E+00  0.8000E+01
    -12.251  0.0000E+00  0.8000E+01
    -12.183  0.0000E+00  0.8000E+01
    -12.116  0.0000E+00  0.8000E+01
    -12.049  0.0000E+00  0.8000E+01
    -11.981  0.0000E+00  0.8000E+01
    -11.914  0.0000E+00  0.8000E+01
    -11.847  0.0000E+00  0.8000E+01
    -11.779  0.0000E+00  0.8000E+01
    -11.712  0.0000E+00  0.8000E+01
    -11.644  0.0000E+00  0.8000E+01
    -11.577  0.0000E+00  0.8000E+01
    -11.510  0.0000E+00  0.8000E+01
    -11.442  0.0000E+00  0.8000E+01
    -11.375  0.0000E+00  0.8000E+01
    -11.308  0.0000E+00  0.8000E+01
    -11.240  0.0000E+00  0.8000E+01
    -11.173  0.0000E+00  0.8000E+01
    -11.106  0.0000E+00  0.8000E+01
    -11.038  0.0000E+00  0.8000E+01
    -10.971  0.0000E+00  0.8000E+01
    -10.904  0.0000E+00  0.8000E+01
    -10.836  0.0000E+00  0.8000E+01
    -10.769  0.0000E+00  0.8000E+01
    -10.702  0.0000E+00  0.8000E+01
    -10.634  0.0000E+00  0.8000E+01
    -10.567  0.0000E+00  0.8000E+01
    -10.499  0.0000E+00  0.8000E+01
    -10.432  0.0000E+00  0.8000E+01
    -10.365  0.0000E+00  0.8000E+01
    -10.297  0.0000E+00  0.8000E+01
    -10.230  0.0000E+00  0.8000E+01
    -10.163  0.0000E+00  0.8000E+01
    -10.095  0.0000E+00  0.8000E+01
    -10.028  0.0000E+00  0.8000E+01
     -9.961  0.0000E+00  0.8000E+01
     -9.893  0.0000E+00  0.8000E+01
     -9.826  0.0000E+00  0.8000E+01
     -9.759  0.0000E+00  0.8000E+01
     -9.691  0.0000E+00  0.8000E+01
     -9.624  0.0000E+00  0.8000E+01
     -9.557  0.0000E+00  0.8000E+01
     -9.489  0.0000E+00  0.8000E+01
     -9.422 -0.6676E-36  0.8000E+01
     -9.354 -0.5232E-26  0.8000E+01
     -9.287 -0.1078E-17  0.8000E+01
     -9.220 -0.5714E-11  0.8000E+01
     -9.152 -0.8164E-06  0.8000E+01
     -9.085 -0.2936E-02  0.8000E+01
     -9.018 -0.1823E+00  0.7988E+01
     -8.950  0.2654E+01  0.8166E+01
     -8.883  0.8623E+01  0.8747E+01
     -8.816  0.8075E+01  0.9291E+01
     -8.748  0.8680E+01  0.9875E+01
     -8.681  0.1255E+02  0.1072E+02
     -8.614  0.1012E+02  0.1140E+02
     -8.546  0.6733E+01  0.1186E+02
     -8.479  0.2297E+01  0.1201E+02
     -8.412 -0.7393E+00  0.1196E+02
     -8.344  0.9970E+01  0.1263E+02
     -8.277  0.1402E+02  0.1358E+02
     -8.209  0.3011E+02  0.1560E+02
     -8.142  0.2407E+02  0.1723E+02
     -8.075  0.1045E+02  0.1793E+02
     -8.007  0.1173E+01  0.1801E+02
     -7.940 -0.1265E+00  0.1800E+02
     -7.873 -0.4168E-03  0.1800E+02
     -7.805 -0.2830E-07  0.1800E+02
     -7.738 -0.4752E-13  0.1800E+02
     -7.671 -0.2207E-31  0.1800E+02
     -7.603 -0.3415E-22  0.1800E+02
     -7.536 -0.1326E-14  0.1800E+02
     -7.469 -0.1331E-08  0.1800E+02
     -7.401 -0.3280E-04  0.1800E+02
     -7.334 -0.1766E-01  0.1800E+02
     -7.267  0.5003E-01  0.1800E+02
     -7.199  0.2956E+01  0.1820E+02
     -7.132  0.5405E+01  0.1857E+02
     -7.064  0.2411E+01  0.1873E+02
     -6.997  0.2760E+01  0.1891E+02