    2    2    1    1
  0.7411054E+03  0.5024975E-09  0.5024975E-09  0.6778156E-08  0.5000000E-15
  1.000000000000000E-004
  CAR 
 unknown system                          
     23     85     16
 
  0.0000000E+00  0.0000000E+00  0.0000000E+00  0.5917160E-02
    1      -59.504704   1.000000
    2      -59.503343   1.000000
    3      -59.401939   1.000000
    4      -15.142484   1.000000
    5       -8.965260   1.000000
    6       -8.963747   1.000000
    7       -8.208063   1.000000
    8       -8.206208   1.000000
    9       -8.087555   1.000000
   10       -5.980195   1.000000
   11       -4.736228  -0.000000
   12       -4.730965  -0.000000
   13       -3.518039   0.000000
   14       -0.168720   0.000000
   15       -0.153819   0.000000
   16        0.340952   0.000000
 
  0.7692308E-01  0.0000000E+00  0.0000000E+00  0.1183432E-01
    1      -59.504685   1.000000
    2      -59.503330   1.000000
    3      -59.401918   1.000000
    4      -15.131721   1.000000
    5       -8.960067   1.000000
    6       -8.948628   1.000000
    7       -8.217534   1.000000
    8       -8.207253   1.000000
    9       -8.088457   1.000000
   10       -5.945937   1.000000
   11       -5.050513  -0.000000
   12       -4.802071  -0.000000
   13       -3.201345   0.000000
   14       -0.147295   0.000000
   15       -0.125361   0.000000
   16        0.390446   0.000000
 
  0.1538462E+00  0.1387779E-16  0.0000000E+00  0.1183432E-01
    1      -59.504688   1.000000
    2      -59.503322   1.000000
    3      -59.401901   1.000000
    4      -15.101598   1.000000
    5       -8.942588   1.000000
    6       -8.904269   1.000000
    7       -8.243970   1.000000
    8       -8.208868   1.000000
    9       -8.092456   1.000000
   10       -5.850118   1.000000
   11       -5.613995   1.000000
   12       -4.986765  -0.000000
   13       -2.656535   0.000000
   14       -0.144998   0.000000
   15       -0.021175   0.000000
   16        0.526890   0.000000
 
  0.2307692E+00  0.0000000E+00  0.0000000E+00  0.1183432E-01
    1      -59.504697   1.000000
    2      -59.503324   1.000000
    3      -59.401913   1.000000
    4      -15.058346   1.000000
    5       -8.904832   1.000000
    6       -8.837580   1.000000
    7       -8.278876   1.000000
    8       -8.211085   1.000000
    9       -8.103689   1.000000
   10       -6.176161   1.000000
   11       -5.711834   1.000000
   12       -5.231947  -0.004693
   13       -2.193506   0.000000
   14       -0.212639   0.000000
   15        0.113943   0.000000
   16        0.708401   0.000000
 
  0.3076923E+00  0.0000000E+00  0.0000000E+00  0.1183432E-01
    1      -59.504709   1.000000
    2      -59.503335   1.000000
    3      -59.401912   1.000000
    4      -15.011381   1.000000
    5       -8.838526   1.000000
    6       -8.760479   1.000000
    7       -8.313265   1.000000
    8       -8.213431   1.000000
    9       -8.130081   1.000000
   10       -6.664618   1.000000
   11       -5.559429   1.000000
   12       -5.479313   1.000285
   13       -1.927425   0.000000
   14       -0.369557   0.000000
   15        0.346618   0.000000
   16        1.052322   0.000000
 
  0.3846154E+00  0.0000000E+00  0.0000000E+00  0.1183432E-01
    1      -59.504720   1.000000
    2      -59.503358   1.000000
    3      -59.401910   1.000000
    4      -14.971590   1.000000
    5       -8.743494   1.000000
    6       -8.690433   1.000000
    7       -8.339973   1.000000
    8       -8.215373   1.000000
    9       -8.182097   1.000000
   10       -7.029324   1.000000
   11       -5.678569   1.000000
   12       -5.427061   1.016540
   13       -1.830188   0.000000
   14       -0.545680   0.000000
   15        0.715125   0.000000
   16        1.395739   0.000000
 
  0.4615385E+00  0.0000000E+00  0.0000000E+00  0.1183432E-01
    1      -59.504735   1.000000
    2      -59.503372   1.000000
    3      -59.401907   1.000000
    4      -14.948763   1.000000
    5       -8.652709   1.000000
    6       -8.645407   1.000000
    7       -8.354408   1.000000
    8       -8.248808   1.000000
    9       -8.216467   1.000000
   10       -7.223855   1.000000
   11       -5.790034   1.000000
   12       -5.349251   0.658424
   13       -1.808528   0.000000
   14       -0.657449   0.000000
   15        1.165169   0.000000
   16        1.663855   0.000000
 
  0.0000000E+00  0.7692308E-01  0.0000000E+00  0.1183432E-01
    1      -59.504695   1.000000
    2      -59.503320   1.000000
    3      -59.401918   1.000000
    4      -15.131756   1.000000
    5       -8.958860   1.000000
    6       -8.949855   1.000000
    7       -8.216124   1.000000
    8       -8.208618   1.000000
    9       -8.088457   1.000000
   10       -5.946038   1.000000
   11       -5.047123  -0.000000
   12       -4.805357  -0.000000
   13       -3.201196   0.000000
   14       -0.147248   0.000000
   15       -0.125447   0.000000
   16        0.392582   0.000000
 
  0.7692308E-01  0.7692308E-01  0.0000000E+00  0.1183432E-01
    1      -59.504684   1.000000
    2      -59.503331   1.000000
    3      -59.401918   1.000000
    4      -15.131716   1.000000
    5       -8.960207   1.000000
    6       -8.948485   1.000000
    7       -8.217705   1.000000
    8       -8.207089   1.000000
    9       -8.088457   1.000000
   10       -5.945922   1.000000
   11       -5.050989  -0.000000
   12       -4.801610  -0.000000
   13       -3.201368   0.000000
   14       -0.147309   0.000000
   15       -0.125349   0.000000
   16        0.393163   0.000000
 
  0.1538462E+00  0.7692308E-01  0.0000000E+00  0.1183432E-01
    1      -59.504687   1.000000
    2      -59.503331   1.000000
    3      -59.401913   1.000000
    4      -15.111234   1.000000
    5       -8.949644   1.000000
    6       -8.917894   1.000000
    7       -8.236089   1.000000
    8       -8.208005   1.000000
    9       -8.090884   1.000000
   10       -5.880785   1.000000
   11       -5.453314   1.003013
   12       -4.938829  -0.000000
   13       -2.794158   0.000000
   14       -0.141351   0.000000
   15       -0.050796   0.000000
   16        0.481572   0.000000
 
  0.2307692E+00  0.7692308E-01  0.0000000E+00  0.1183432E-01
    1      -59.504709   1.000000
    2      -59.503335   1.000000
    3      -59.401912   1.000000
    4      -15.074492   1.000000
    5       -8.923321   1.000000
    6       -8.860593   1.000000
    7       -8.266130   1.000000
    8       -8.210417   1.000000
    9       -8.098236   1.000000
   10       -5.966475   1.000000
   11       -5.763619   1.000000
   12       -5.177441  -0.000022
   13       -2.294121   0.000000
   14       -0.175339   0.000000
   15        0.066492   0.000000
   16        0.635312   0.000000
 
  0.3076923E+00  0.7692308E-01  0.0000000E+00  0.1183432E-01
    1      -59.504725   1.000000
    2      -59.503341   1.000000
    3      -59.401913   1.000000
    4      -15.029298   1.000000
    5       -8.873588   1.000000
    6       -8.784924   1.000000
    7       -8.299840   1.000000
    8       -8.213327   1.000000
    9       -8.115985   1.000000
   10       -6.460681   1.000000
   11       -5.618064   1.000000
   12       -5.446157   1.005153
   13       -1.906426   0.000000
   14       -0.292899   0.000000
   15        0.227486   0.000000
   16        0.820591   0.000000
 
  0.3846154E+00  0.7692308E-01  0.0000000E+00  0.1183432E-01
    1      -59.504725   1.000000
    2      -59.503337   1.000000
    3      -59.401915   1.000000
    4      -14.985810   1.000000
    5       -8.796705   1.000000
    6       -8.704293   1.000000
    7       -8.329418   1.000000
    8       -8.216065   1.000000
    9       -8.152902   1.000000
   10       -6.871597   1.000000
   11       -5.686182   1.000000
   12       -5.475000   1.000439
   13       -1.712351   0.000000
   14       -0.462249   0.000000
   15        0.527517   0.000000
   16        1.246858   0.000000
 
  0.4615385E+00  0.7692308E-01  0.0000000E+00  0.1183432E-01
    1      -59.504734   1.000000
    2      -59.503347   1.000000
    3      -59.401912   1.000000
    4      -14.954412   1.000000
    5       -8.709734   1.000000
    6       -8.633155   1.000000
    7       -8.349237   1.000000
    8       -8.218035   1.000000
    9       -8.213076   1.000000
   10       -7.145683   1.000000
   11       -5.851954   1.000000
   12       -5.368998   0.913607
   13       -1.651640   0.000000
   14       -0.605223   0.000000
   15        0.948568   0.000000
   16        1.590051   0.000000
 
 -0.4615385E+00  0.7692308E-01  0.0000000E+00  0.1183432E-01
    1      -59.504746   1.000000
    2      -59.503367   1.000000
    3      -59.401912   1.000000
    4      -14.942990   1.000000
    5       -8.670806   1.000000
    6       -8.593221   1.000000
    7       -8.356090   1.000000
    8       -8.254512   1.000000
    9       -8.218801   1.000000
   10       -7.241444   1.000000
   11       -5.911410   1.000000
   12       -5.329706   0.334522
   13       -1.640969   0.000000
   14       -0.660175   0.000000
   15        1.334075   0.000000
   16        1.546847   0.000000
 
 -0.3846154E+00  0.7692308E-01  0.0000000E+00  0.1183432E-01
    1      -59.504713   1.000000
    2      -59.503368   1.000000
    3      -59.401912   1.000000
    4      -14.954498   1.000000
    5       -8.712479   1.000000
    6       -8.630221   1.000000
    7       -8.348959   1.000000
    8       -8.218233   1.000000
    9       -8.213123   1.000000
   10       -7.145179   1.000000
   11       -5.852331   1.000000
   12       -5.369250   0.915926
   13       -1.651250   0.000000
   14       -0.604759   0.000000
   15        0.948325   0.000000
   16        1.589631   0.000000
 
 -0.3076923E+00  0.7692308E-01  0.0000000E+00  0.1183432E-01
    1      -59.504702   1.000000
    2      -59.503360   1.000000
    3      -59.401915   1.000000
    4      -14.985959   1.000000
    5       -8.798814   1.000000
    6       -8.702118   1.000000
    7       -8.328864   1.000000
    8       -8.216472   1.000000
    9       -8.152862   1.000000
   10       -6.870340   1.000000
   11       -5.687045   1.000000
   12       -5.475431   1.000421
   13       -1.711578   0.000000
   14       -0.461474   0.000000
   15        0.526925   0.000000
   16        1.248107   0.000000
 
 -0.2307692E+00  0.7692308E-01  0.0000000E+00  0.1183432E-01
    1      -59.504707   1.000000
    2      -59.503359   1.000000
    3      -59.401913   1.000000
    4      -15.029474   1.000000
    5       -8.874643   1.000000
    6       -8.783904   1.000000
    7       -8.299001   1.000000
    8       -8.213979   1.000000
    9       -8.115947   1.000000
   10       -6.458510   1.000000
   11       -5.618565   1.000000
   12       -5.447685   1.004615
   13       -1.905470   0.000000
   14       -0.292095   0.000000
   15        0.226549   0.000000
   16        0.816715   0.000000
 
 -0.1538462E+00  0.7692308E-01  0.0000000E+00  0.1183432E-01
    1      -59.504698   1.000000
    2      -59.503346   1.000000
    3      -59.401912   1.000000
    4      -15.074653   1.000000
    5       -8.923461   1.000000
    6       -8.860523   1.000000
    7       -8.264971   1.000000
    8       -8.211390   1.000000
    9       -8.098220   1.000000
   10       -5.963327   1.000000
   11       -5.764078   1.000000
   12       -5.179879  -0.000030
   13       -2.293405   0.000000
   14       -0.174786   0.000000
   15        0.065836   0.000000
   16        0.552781   0.000000
 
 -0.7692308E-01  0.7692308E-01  0.0000000E+00  0.1183432E-01
    1      -59.504691   1.000000
    2      -59.503327   1.000000
    3      -59.401913   1.000000
    4      -15.111346   1.000000
    5       -8.948839   1.000000
    6       -8.918760   1.000000
    7       -8.234517   1.000000
    8       -8.209438   1.000000
    9       -8.090879   1.000000
   10       -5.881107   1.000000
   11       -5.449126   1.004150
   12       -4.942510  -0.000000
   13       -2.793783   0.000000
   14       -0.141097   0.000000
   15       -0.051048   0.000000
   16        0.482450   0.000000
 
  0.0000000E+00  0.1538462E+00  0.0000000E+00  0.1183432E-01
    1      -59.504680   1.000000
    2      -59.503330   1.000000
    3      -59.401901   1.000000
    4      -15.101732   1.000000
    5       -8.941194   1.000000
    6       -8.905743   1.000000
    7       -8.242491   1.000000
    8       -8.210182   1.000000
    9       -8.092449   1.000000
   10       -5.850503   1.000000
   11       -5.610710   1.000000
   12       -4.989034  -0.000000
   13       -2.656825   0.000000
   14       -0.144667   0.000000
   15       -0.021782   0.000000
   16        0.528013   0.000000
 
  0.7692308E-01  0.1538462E+00  0.0000000E+00  0.1183432E-01
    1      -59.504691   1.000000
    2      -59.503328   1.000000
    3      -59.401913   1.000000
    4      -15.111332   1.000000
    5       -8.948931   1.000000
    6       -8.918660   1.000000
    7       -8.234722   1.000000
    8       -8.209251   1.000000
    9       -8.090880   1.000000
   10       -5.881066   1.000000
   11       -5.449651   1.003991
   12       -4.942048  -0.000000
   13       -2.793831   0.000000
   14       -0.141129   0.000000
   15       -0.051025   0.000000
   16        0.480981   0.000000
 
  0.1538462E+00  0.1538462E+00  0.0000000E+00  0.1183432E-01
    1      -59.504689   1.000000
    2      -59.503321   1.000000
    3      -59.401901   1.000000
    4      -15.101579   1.000000
    5       -8.942765   1.000000
    6       -8.904080   1.000000
    7       -8.244171   1.000000
    8       -8.208690   1.000000
    9       -8.092457   1.000000
   10       -5.850063   1.000000
   11       -5.614459   1.000000
   12       -4.986445  -0.000000
   13       -2.656496   0.000000
   14       -0.145047   0.000000
   15       -0.021088   0.000000
   16        0.543363   0.000000
 
  0.2307692E+00  0.1538462E+00  0.0000000E+00  0.1183432E-01
    1      -59.504708   1.000000
    2      -59.503335   1.000000
    3      -59.401912   1.000000
    4      -15.074478   1.000000
    5       -8.923434   1.000000
    6       -8.860470   1.000000
    7       -8.266226   1.000000
    8       -8.210337   1.000000
    9       -8.098238   1.000000
   10       -5.966675   1.000000
   11       -5.763578   1.000000
   12       -5.177370  -0.000022
   13       -2.294031   0.000000
   14       -0.175386   0.000000
   15        0.066594   0.000000
   16        0.653085   0.000000
 
  0.3076923E+00  0.1538462E+00  0.0000000E+00  0.1183432E-01
    1      -59.504718   1.000000
    2      -59.503335   1.000000
    3      -59.401908   1.000000
    4      -15.035730   1.000000
    5       -8.887426   1.000000
    6       -8.790758   1.000000
    7       -8.294362   1.000000
    8       -8.213867   1.000000
    9       -8.111343   1.000000
   10       -6.363696   1.000000
   11       -5.639018   1.000000
   12       -5.473901   1.000489
   13       -1.842335   0.000000
   14       -0.263472   0.000000
   15        0.183883   0.000000
   16        0.648440   0.000000
 
  0.3846154E+00  0.1538462E+00  0.0000000E+00  0.1183432E-01
    1      -59.504742   1.000000
    2      -59.503347   1.000000
    3      -59.401919   1.000000
    4      -14.993850   1.000000
    5       -8.829201   1.000000
    6       -8.705911   1.000000
    7       -8.321866   1.000000
    8       -8.218039   1.000000
    9       -8.136660   1.000000
   10       -6.736077   1.000000
   11       -5.778308   1.000000
   12       -5.502024   1.000022
   13       -1.473554   0.000000
   14       -0.399966   0.000000
   15        0.380858   0.000000
   16        0.962506   0.000000
 
  0.4615385E+00  0.1538462E+00  0.0000000E+00  0.1183432E-01
    1      -59.504738   1.000000
    2      -59.503335   1.000000
    3      -59.401908   1.000000
    4      -14.958534   1.000000
    5       -8.753415   1.000000
    6       -8.623209   1.000000
    7       -8.343144   1.000000
    8       -8.221671   1.000000
    9       -8.177602   1.000000
   10       -7.031228   1.000000
   11       -6.018961   1.000000
   12       -5.383721   1.007855
   13       -1.287347   0.000000
   14       -0.535166   0.000000
   15        0.747440   0.000000
   16        1.445099   0.000000
 
 -0.4615385E+00  0.1538462E+00  0.0000000E+00  0.1183432E-01
    1      -59.504740   1.000000
    2      -59.503355   1.000000
    3      -59.401921   1.000000
    4      -14.938380   1.000000
    5       -8.690852   1.000000
    6       -8.566181   1.000000
    7       -8.354520   1.000000
    8       -8.223889   1.000000
    9       -8.220664   1.000000
   10       -7.197188   1.000000
   11       -6.151211   1.000000
   12       -5.314681   0.129690
   13       -1.229674   0.000000
   14       -0.617827   0.000000
   15        1.197641   0.000000
   16        1.595578   0.000000
 
 -0.3846154E+00  0.1538462E+00  0.0000000E+00  0.1183432E-01
    1      -59.504717   1.000000
    2      -59.503378   1.000000
    3      -59.401921   1.000000
    4      -14.938467   1.000000
    5       -8.692792   1.000000
    6       -8.563945   1.000000
    7       -8.354244   1.000000
    8       -8.224086   1.000000
    9       -8.220791   1.000000
   10       -7.196704   1.000000
   11       -6.151571   1.000000
   12       -5.314938   0.132523
   13       -1.229247   0.000000
   14       -0.617325   0.000000
   15        1.197016   0.000000
   16        1.594997   0.000000
 
 -0.3076923E+00  0.1538462E+00  0.0000000E+00  0.1183432E-01
    1      -59.504699   1.000000
    2      -59.503373   1.000000
    3      -59.401908   1.000000
    4      -14.958772   1.000000
    5       -8.756551   1.000000
    6       -8.619788   1.000000
    7       -8.342330   1.000000
    8       -8.222262   1.000000
    9       -8.177611   1.000000
   10       -7.029495   1.000000
   11       -6.020112   1.000000
   12       -5.384416   1.010399
   13       -1.286117   0.000000
   14       -0.533839   0.000000
   15        0.745853   0.000000
   16        1.446876   0.000000
 
 -0.2307692E+00  0.1538462E+00  0.0000000E+00  0.1183432E-01
    1      -59.504715   1.000000
    2      -59.503373   1.000000
    3      -59.401919   1.000000
    4      -14.994178   1.000000
    5       -8.831309   1.000000
    6       -8.703780   1.000000
    7       -8.320558   1.000000
    8       -8.219018   1.000000
    9       -8.136574   1.000000
   10       -6.732850   1.000000
   11       -5.780318   1.000000
   12       -5.502970   1.000020
   13       -1.471995   0.000000
   14       -0.398279   0.000000
   15        0.378203   0.000000
   16        0.958296   0.000000
 
 -0.1538462E+00  0.1538462E+00  0.0000000E+00  0.1183432E-01
    1      -59.504700   1.000000
    2      -59.503352   1.000000
    3      -59.401908   1.000000
    4      -15.036070   1.000000
    5       -8.888076   1.000000
    6       -8.790230   1.000000
    7       -8.292641   1.000000
    8       -8.215221   1.000000
    9       -8.111279   1.000000
   10       -6.359297   1.000000
   11       -5.639989   1.000000
   12       -5.476616   1.000374
   13       -1.841435   0.000000
   14       -0.261988   0.000000
   15        0.181362   0.000000
   16        0.643501   0.000000
 
 -0.7692308E-01  0.1538462E+00  0.0000000E+00  0.1183432E-01
    1      -59.504699   1.000000
    2      -59.503344   1.000000
    3      -59.401912   1.000000
    4      -15.074754   1.000000
    5       -8.922616   1.000000
    6       -8.861435   1.000000
    7       -8.264261   1.000000
    8       -8.211983   1.000000
    9       -8.098210   1.000000
   10       -5.961914   1.000000
   11       -5.764365   1.000000
   12       -5.180397  -0.000032
   13       -2.294041   0.000000
   14       -0.174470   0.000000
   15        0.065139   0.000000
   16        0.552181   0.000000
 
  0.0000000E+00  0.2307692E+00  0.0000000E+00  0.1183432E-01
    1      -59.504676   1.000000
    2      -59.503345   1.000000
    3      -59.401913   1.000000
    4      -15.058627   1.000000
    5       -8.903098   1.000000
    6       -8.839488   1.000000
    7       -8.277256   1.000000
    8       -8.212389   1.000000
    9       -8.103652   1.000000
   10       -6.172916   1.000000
   11       -5.712635   1.000000
   12       -5.232947  -0.005044
   13       -2.194926   0.000000
   14       -0.211626   0.000000
   15        0.112448   0.000000
   16        0.703878   0.000000
 
  0.7692308E-01  0.2307692E+00  0.0000000E+00  0.1183432E-01
    1      -59.504701   1.000000
    2      -59.503343   1.000000
    3      -59.401912   1.000000
    4      -15.074734   1.000000
    5       -8.922590   1.000000
    6       -8.861452   1.000000
    7       -8.264410   1.000000
    8       -8.211857   1.000000
    9       -8.098212   1.000000
   10       -5.962308   1.000000
   11       -5.764307   1.000000
   12       -5.180092  -0.000031
   13       -2.294131   0.000000
   14       -0.174540   0.000000
   15        0.065223   0.000000
   16        0.552525   0.000000
 
  0.1538462E+00  0.2307692E+00  0.0000000E+00  0.1183432E-01
    1      -59.504699   1.000000
    2      -59.503344   1.000000
    3      -59.401912   1.000000
    4      -15.074619   1.000000
    5       -8.923548   1.000000
    6       -8.860417   1.000000
    7       -8.265217   1.000000
    8       -8.211184   1.000000
    9       -8.098223   1.000000
   10       -5.963920   1.000000
   11       -5.763980   1.000000
   12       -5.179503  -0.000029
   13       -2.293406   0.000000
   14       -0.174903   0.000000
   15        0.066020   0.000000
   16        0.555751   0.000000
 
  0.2307692E+00  0.2307692E+00  0.0000000E+00  0.1183432E-01
    1      -59.504700   1.000000
    2      -59.503321   1.000000
    3      -59.401913   1.000000
    4      -15.058306   1.000000
    5       -8.905056   1.000000
    6       -8.837331   1.000000
    7       -8.279101   1.000000
    8       -8.210905   1.000000
    9       -8.103695   1.000000
   10       -6.176621   1.000000
   11       -5.711720   1.000000
   12       -5.231809  -0.004646
   13       -2.193305   0.000000
   14       -0.212787   0.000000
   15        0.114158   0.000000
   16        0.707688   0.000000
 
  0.3076923E+00  0.2307692E+00  0.0000000E+00  0.1183432E-01
    1      -59.504725   1.000000
    2      -59.503341   1.000000
    3      -59.401913   1.000000
    4      -15.029263   1.000000
    5       -8.873796   1.000000
    6       -8.784691   1.000000
    7       -8.299996   1.000000
    8       -8.213209   1.000000
    9       -8.115992   1.000000
   10       -6.460968   1.000000
   11       -5.617963   1.000000
   12       -5.446163   1.005150
   13       -1.906151   0.000000
   14       -0.293049   0.000000
   15        0.227657   0.000000
   16        0.820502   0.000000
 
  0.3846154E+00  0.2307692E+00  0.0000000E+00  0.1183432E-01
    1      -59.504742   1.000000
    2      -59.503347   1.000000
    3      -59.401919   1.000000
    4      -14.993829   1.000000
    5       -8.829288   1.000000
    6       -8.705809   1.000000
    7       -8.321944   1.000000
    8       -8.217982   1.000000
    9       -8.136665   1.000000
   10       -6.736210   1.000000
   11       -5.778331   1.000000
   12       -5.501963   1.000022
   13       -1.473376   0.000000
   14       -0.400067   0.000000
   15        0.380942   0.000000
   16        0.962468   0.000000
 
  0.4615385E+00  0.2307692E+00  0.0000000E+00  0.1183432E-01
    1      -59.504745   1.000000
    2      -59.503322   1.000000
    3      -59.401904   1.000000
    4      -14.960032   1.000000
    5       -8.768904   1.000000
    6       -8.619874   1.000000
    7       -8.340389   1.000000
    8       -8.223575   1.000000
    9       -8.163532   1.000000
   10       -6.965441   1.000000
   11       -6.114767   1.000000
   12       -5.389133   1.023909
   13       -1.059484   0.000000
   14       -0.501617   0.000000
   15        0.613530   0.000000
   16        1.267054   0.000000
 
 -0.4615385E+00  0.2307692E+00  0.0000000E+00  0.1183432E-01
    1      -59.504728   1.000000
    2      -59.503331   1.000000
    3      -59.401914   1.000000
    4      -14.935839   1.000000
    5       -8.703200   1.000000
    6       -8.559597   1.000000
    7       -8.352330   1.000000
    8       -8.228060   1.000000
    9       -8.184613   1.000000
   10       -7.123293   1.000000
   11       -6.359863   1.000000
   12       -5.306667   0.054613
   13       -0.820283   0.000000
   14       -0.570939   0.000000
   15        1.012539   0.000000
   16        1.436640   0.000000
 
 -0.3846154E+00  0.2307692E+00  0.0000000E+00  0.1183432E-01
    1      -59.504701   1.000000
    2      -59.503337   1.000000
    3      -59.401904   1.000000
    4      -14.927136   1.000000
    5       -8.670594   1.000000
    6       -8.542627   1.000000
    7       -8.356189   1.000000
    8       -8.229939   1.000000
    9       -8.190103   1.000000
   10       -7.181282   1.000000
   11       -6.449680   1.000000
   12       -5.276563  -0.035246
   13       -0.753967   0.000000
   14       -0.594551   0.000000
   15        1.354983   0.000000
   16        1.369458   0.000000
 
 -0.3076923E+00  0.2307692E+00  0.0000000E+00  0.1183432E-01
    1      -59.504693   1.000000
    2      -59.503366   1.000000
    3      -59.401914   1.000000
    4      -14.936080   1.000000
    5       -8.706564   1.000000
    6       -8.555681   1.000000
    7       -8.351540   1.000000
    8       -8.228629   1.000000
    9       -8.184805   1.000000
   10       -7.121680   1.000000
   11       -6.360905   1.000000
   12       -5.307382   0.060261
   13       -0.819002   0.000000
   14       -0.569478   0.000000
   15        1.009626   0.000000
   16        1.435283   0.000000
 
 -0.2307692E+00  0.2307692E+00  0.0000000E+00  0.1183432E-01
    1      -59.504696   1.000000
    2      -59.503371   1.000000
    3      -59.401904   1.000000
    4      -14.960454   1.000000
    5       -8.771964   1.000000
    6       -8.616533   1.000000
    7       -8.338918   1.000000
    8       -8.224646   1.000000
    9       -8.163514   1.000000
   10       -6.962200   1.000000
   11       -6.116509   1.000000
   12       -5.390364   1.026450
   13       -1.058018   0.000000
   14       -0.499262   0.000000
   15        0.609545   0.000000
   16        1.263423   0.000000
 
 -0.1538462E+00  0.2307692E+00  0.0000000E+00  0.1183432E-01
    1      -59.504715   1.000000
    2      -59.503374   1.000000
    3      -59.401919   1.000000
    4      -14.994327   1.000000
    5       -8.830682   1.000000
    6       -8.704500   1.000000
    7       -8.319996   1.000000
    8       -8.219430   1.000000
    9       -8.136542   1.000000
   10       -6.731906   1.000000
   11       -5.780174   1.000000
   12       -5.503399   1.000019
   13       -1.473247   0.000000
   14       -0.397582   0.000000
   15        0.377626   0.000000
   16        0.958325   0.000000
 
 -0.7692308E-01  0.2307692E+00  0.0000000E+00  0.1183432E-01
    1      -59.504707   1.000000
    2      -59.503359   1.000000
    3      -59.401913   1.000000
    4      -15.029723   1.000000
    5       -8.873116   1.000000
    6       -8.785598   1.000000
    7       -8.297869   1.000000
    8       -8.214844   1.000000
    9       -8.115902   1.000000
   10       -6.456484   1.000000
   11       -5.619278   1.000000
   12       -5.447669   1.004620
   13       -1.907406   0.000000
   14       -0.291068   0.000000
   15        0.225352   0.000000
   16        0.816212   0.000000
 
  0.0000000E+00  0.3076923E+00  0.0000000E+00  0.1183432E-01
    1      -59.504687   1.000000
    2      -59.503357   1.000000
    3      -59.401912   1.000000
    4      -15.011827   1.000000
    5       -8.836323   1.000000
    6       -8.762943   1.000000
    7       -8.311503   1.000000
    8       -8.214730   1.000000
    9       -8.129973   1.000000
   10       -6.661545   1.000000
   11       -5.560708   1.000000
   12       -5.479058   1.000292
   13       -1.930348   0.000000
   14       -0.367595   0.000000
   15        0.345320   0.000000
   16        1.054871   0.000000
 
  0.7692308E-01  0.3076923E+00  0.0000000E+00  0.1183432E-01
    1      -59.504709   1.000000
    2      -59.503357   1.000000
    3      -59.401913   1.000000
    4      -15.029701   1.000000
    5       -8.872973   1.000000
    6       -8.785736   1.000000
    7       -8.297977   1.000000
    8       -8.214760   1.000000
    9       -8.115906   1.000000
   10       -6.456755   1.000000
   11       -5.619215   1.000000
   12       -5.447479   1.004685
   13       -1.907526   0.000000
   14       -0.291170   0.000000
   15        0.225474   0.000000
   16        0.816585   0.000000
 
  0.1538462E+00  0.3076923E+00  0.0000000E+00  0.1183432E-01
    1      -59.504703   1.000000
    2      -59.503350   1.000000
    3      -59.401908   1.000000
    4      -15.036028   1.000000
    5       -8.887983   1.000000
    6       -8.790307   1.000000
    7       -8.292858   1.000000
    8       -8.215049   1.000000
    9       -8.111287   1.000000
   10       -6.359845   1.000000
   11       -5.639868   1.000000
   12       -5.476278   1.000387
   13       -1.841549   0.000000
   14       -0.262177   0.000000
   15        0.181687   0.000000
   16        0.644119   0.000000
 
  0.2307692E+00  0.3076923E+00  0.0000000E+00  0.1183432E-01
    1      -59.504709   1.000000
    2      -59.503357   1.000000
    3      -59.401913   1.000000
    4      -15.029417   1.000000
    5       -8.874709   1.000000
    6       -8.783808   1.000000
    7       -8.299265   1.000000
    8       -8.213777   1.000000
    9       -8.115959   1.000000
   10       -6.459068   1.000000
   11       -5.618401   1.000000
   12       -5.447501   1.004677
   13       -1.905314   0.000000
   14       -0.292347   0.000000
   15        0.226842   0.000000
   16        0.817559   0.000000
 
  0.3076923E+00  0.3076923E+00  0.0000000E+00  0.1183432E-01
    1      -59.504713   1.000000
    2      -59.503332   1.000000
    3      -59.401912   1.000000
    4      -15.011319   1.000000
    5       -8.838807   1.000000