 vasp.5.4.1 05Feb16 (build Sep 02 2018 21:45:25) complex                        
  
 executed on           IFC91_ompi date 2018.09.04  02:42:48
 running on   40 total cores
 distrk:  each k-point on   40 cores,    1 groups
 distr:  one band on NCORES_PER_BAND=  20 cores,    2 groups


--------------------------------------------------------------------------------------------------------


 INCAR:
 POTCAR:    PAW_PBE Ag_pv 09Dec2005               
 POTCAR:    PAW_PBE Te 08Apr2002                  

 ----------------------------------------------------------------------------- 
|                                                                             |
|           W    W    AA    RRRRR   N    N  II  N    N   GGGG   !!!           |
|           W    W   A  A   R    R  NN   N  II  NN   N  G    G  !!!           |
|           W    W  A    A  R    R  N N  N  II  N N  N  G       !!!           |
|           W WW W  AAAAAA  RRRRR   N  N N  II  N  N N  G  GGG   !            |
|           WW  WW  A    A  R   R   N   NN  II  N   NN  G    G                |
|           W    W  A    A  R    R  N    N  II  N    N   GGGG   !!!           |
|                                                                             |
|      For optimal performance we recommend to set                            |
|        NCORE= 4 - approx SQRT( number of cores)                             |
|      NCORE specifies how many cores store one orbital (NPAR=cpu/NCORE).     |
|      This setting can  greatly improve the performance of VASP for DFT.     |
|      The default, NPAR=number of cores might be grossly inefficient         |
|      on modern multi-core architectures or massively parallel machines.     |
|      Do your own testing !!!!                                               |
|      Unfortunately you need to use the default for GW and RPA calculations. |
|      (for HF NCORE is supported but not extensively tested yet)             |
|                                                                             |
 ----------------------------------------------------------------------------- 

 POTCAR:    PAW_PBE Ag_pv 09Dec2005               
   VRHFIN =Ag : s1 d10                                                          
   LEXCH  = PE                                                                  
   EATOM  =  3061.0398 eV,  224.9801 Ry                                         
                                                                                
   TITEL  = PAW_PBE Ag_pv 09Dec2005                                             
   LULTRA =        F    use ultrasoft PP ?                                      
   IUNSCR =        1    unscreen: 0-lin 1-nonlin 2-no                           
   RPACOR =    2.000    partial core radius                                     
   POMASS =  107.868; ZVAL   =   17.000    mass and valenz                      
   RCORE  =    2.200    outmost cutoff radius                                   
   RWIGS  =    2.300; RWIGS  =    1.217    wigner-seitz radius (au A)           
   ENMAX  =  297.865; ENMIN  =  223.399 eV                                      
   ICORE  =        3    local potential                                         
   LCOR   =        T    correct aug charges                                     
   LPAW   =        T    paw PP                                                  
   EAUG   =  532.843                                                            
   DEXC   =    0.000                                                            
   RMAX   =    2.253    core radius for proj-oper                               
   RAUG   =    1.300    factor for augmentation sphere                          
   RDEP   =    2.266    radius for radial grids                                 
   RDEPT  =    1.838    core radius for aug-charge                              
                                                                                
   Atomic configuration                                                         
   12 entries                                                                   
     n  l   j            E        occ.                                          
     1  0  0.50    -25324.9161   2.0000                                         
     2  0  0.50     -3728.5341   2.0000                                         
     2  1  1.50     -3344.0404   6.0000                                         
     3  0  0.50      -683.5581   2.0000                                         
     3  1  1.50      -557.3225   6.0000                                         
     3  2  2.50      -358.3853  10.0000                                         
     4  0  0.50       -95.0341   2.0000                                         
     5  0  0.50        -4.4045   1.0000                                         
     4  1  1.50       -58.5511   6.0000                                         
     5  1  0.50        -1.3606   0.0000                                         
     4  2  2.50        -7.4440  10.0000                                         
     4  3  2.50        -1.3606   0.0000                                         
   Description                                                                  
     l       E           TYP  RCUT    TYP  RCUT                                 
     0     -4.4044681     23  2.200                                             
     0     54.4233040     23  2.200                                             
     1    -58.5511049     23  1.900                                             
     1     27.2116520     23  1.900                                             
     2     -7.4439781     23  2.200                                             
     2     -8.8045607     23  2.200                                             
     3     -4.0817478     23  2.200                                             
  local pseudopotential read in
  partial core-charges read in
  partial kinetic energy density read in
  atomic valenz-charges read in
  non local Contribution for L=           0  read in
    real space projection operators read in
  non local Contribution for L=           0  read in
    real space projection operators read in
  non local Contribution for L=           1  read in
    real space projection operators read in
  non local Contribution for L=           1  read in
    real space projection operators read in
  non local Contribution for L=           2  read in
    real space projection operators read in
  non local Contribution for L=           2  read in
    real space projection operators read in
    PAW grid and wavefunctions read in
 
   number of l-projection  operators is LMAX  =           6
   number of lm-projection operators is LMMAX =          18
 
 POTCAR:    PAW_PBE Te 08Apr2002                  
   VRHFIN =Te: s2p4                                                             
   LEXCH  = PE                                                                  
   EATOM  =   223.2721 eV,   16.4100 Ry                                         
                                                                                
   TITEL  = PAW_PBE Te 08Apr2002                                                
   LULTRA =        F    use ultrasoft PP ?                                      
   IUNSCR =        1    unscreen: 0-lin 1-nonlin 2-no                           
   RPACOR =    2.200    partial core radius                                     
   POMASS =  127.600; ZVAL   =    6.000    mass and valenz                      
   RCORE  =    2.300    outmost cutoff radius                                   
   RWIGS  =    2.900; RWIGS  =    1.535    wigner-seitz radius (au A)           
   ENMAX  =  174.982; ENMIN  =  131.236 eV                                      
   ICORE  =        3    local potential                                         
   LCOR   =        T    correct aug charges                                     
   LPAW   =        T    paw PP                                                  
   EAUG   =  368.792                                                            
   DEXC   =    0.000                                                            
   RMAX   =    2.345    core radius for proj-oper                               
   RAUG   =    1.300    factor for augmentation sphere                          
   RDEP   =    2.397    radius for radial grids                                 
   RDEPT  =    2.174    core radius for aug-charge                              
                                                                                
   Atomic configuration                                                         
   13 entries                                                                   
     n  l   j            E        occ.                                          
     1  0  0.50    -31621.2075   2.0000                                         
     2  0  0.50     -4848.7941   2.0000                                         
     2  1  1.50     -4352.1960   6.0000                                         
     3  0  0.50      -964.9612   2.0000                                         
     3  1  1.50      -803.6179   6.0000                                         
     3  2  2.50      -559.8710  10.0000                                         
     4  0  0.50      -164.3522   2.0000                                         
     4  1  1.50      -114.3756   6.0000                                         
     4  2  2.50       -41.6483  10.0000                                         
     5  0  0.50       -15.1072   2.0000                                         
     5  1  0.50        -5.9526   4.0000                                         
     5  2  1.50        -5.4423   0.0000                                         
     4  3  2.50        -5.4423   0.0000                                         
   Description                                                                  
     l       E           TYP  RCUT    TYP  RCUT                                 
     0    -15.1072389     23  2.300                                             
     0    -16.4678215     23  2.300                                             
     1     -5.9526306     23  2.300                                             
     1     -2.4873968     23  2.300                                             
     2     -5.4423304     23  2.300                                             
     3     -1.3605826     23  2.300                                             
  local pseudopotential read in
  partial core-charges read in
  partial kinetic energy density read in
  atomic valenz-charges read in
  non local Contribution for L=           0  read in
    real space projection operators read in
  non local Contribution for L=           0  read in
    real space projection operators read in
  non local Contribution for L=           1  read in
    real space projection operators read in
  non local Contribution for L=           1  read in
    real space projection operators read in
  non local Contribution for L=           2  read in
    real space projection operators read in
    PAW grid and wavefunctions read in
 
   number of l-projection  operators is LMAX  =           5
   number of lm-projection operators is LMMAX =          13
 

 ----------------------------------------------------------------------------- 
|                                                                             |
|  ADVICE TO THIS USER RUNNING 'VASP/VAMP'   (HEAR YOUR MASTER'S VOICE ...):  |
|                                                                             |
|      You have a (more or less) 'small supercell' and for smaller cells      |
|      it is recommended  to use the reciprocal-space projection scheme!      |
|      The real space optimization is not  efficient for small cells and it   |
|      is also less accurate ...                                              |
|      Therefore set LREAL=.FALSE. in the  INCAR file                         |
|                                                                             |
 ----------------------------------------------------------------------------- 

 Optimization of the real space projectors (new method)

 maximal supplied QI-value         = 17.01
 optimisation between [QCUT,QGAM] = [ 11.57, 23.30] = [ 37.45,152.03] Ry 
 Optimized for a Real-space Cutoff    1.40 Angstroem

   l    n(q)    QCUT    max X(q) W(low)/X(q) W(high)/X(q)  e(spline) 
   0     10    11.565    22.935    0.68E-04    0.37E-04    0.90E-07
   0     10    11.565     9.539    0.42E-04    0.30E-04    0.69E-07
   1      9    11.565     2.576    0.90E-04    0.83E-04    0.89E-07
   1      9    11.565     3.245    0.21E-03    0.17E-03    0.18E-06
   2      9    11.565    63.729    0.11E-03    0.14E-03    0.17E-06
   2      9    11.565    61.202    0.11E-03    0.14E-03    0.17E-06
 Optimization of the real space projectors (new method)

 maximal supplied QI-value         = 16.25
 optimisation between [QCUT,QGAM] = [ 11.54, 23.24] = [ 37.28,151.24] Ry 
 Optimized for a Real-space Cutoff    1.36 Angstroem

   l    n(q)    QCUT    max X(q) W(low)/X(q) W(high)/X(q)  e(spline) 
   0      9    11.539   224.858    0.53E-04    0.69E-04    0.12E-06
   0      9    11.539   205.313    0.53E-04    0.69E-04    0.12E-06
   1      9    11.539   119.695    0.25E-03    0.13E-04    0.15E-06
   1      9    11.539    84.282    0.24E-03    0.13E-04    0.15E-06
   2      9    11.539     5.599    0.30E-04    0.97E-04    0.54E-07
  PAW_PBE Ag_pv 09Dec2005               :
 energy of atom  1       EATOM=-3061.0398
 kinetic energy error for atom=    0.0181 (will be added to EATOM!!)
  PAW_PBE Te 08Apr2002                  :
 energy of atom  2       EATOM= -223.2721
 kinetic energy error for atom=    0.0007 (will be added to EATOM!!)
 
 
 POSCAR: Ag21                                    
  positions in direct lattice
  velocities in cartesian coordinates
 exchange correlation table for  LEXCH =        8
   RHO(1)=    0.500       N(1)  =     2000
   RHO(2)=  100.500       N(2)  =     4000
 


--------------------------------------------------------------------------------------------------------


 ion  position               nearest neighbor table
   1  0.998  0.338  0.248-   2 2.90   2 2.90   2 2.90
   2  0.664  0.005  0.248-   1 2.90   1 2.90   1 2.90
 
  LATTYP: Found a hexagonal cell.
 ALAT       =     5.0249749181
 C/A-ratio  =    13.4889345825
  
  Lattice vectors:
  
 A1 = (   2.5124874591,  -4.3517559325,   0.0000000000)
 A2 = (  -5.0249749181,   0.0000000000,   0.0000000000)
 A3 = (   0.0000000000,   0.0000000000, -67.7815579489)


Analysis of symmetry for initial positions (statically):
=====================================================================
 Subroutine PRICEL returns:
 Original cell was already a primitive cell.
 

 Routine SETGRP: Setting up the symmetry group for a 
 hexagonal supercell.


 Subroutine GETGRP returns: Found  1 space group operations
 (whereof  1 operations were pure point group operations)
 out of a pool of 24 trial point group operations.


The static configuration has the point symmetry C_1 .


Analysis of symmetry for dynamics (positions and initial velocities):
=====================================================================
 Subroutine PRICEL returns:
 Original cell was already a primitive cell.
 

 Routine SETGRP: Setting up the symmetry group for a 
 hexagonal supercell.


 Subroutine GETGRP returns: Found  1 space group operations
 (whereof  1 operations were pure point group operations)
 out of a pool of 24 trial point group operations.


The dynamic configuration has the point symmetry C_1 .


Analysis of constrained symmetry for selective dynamics:
=====================================================================
 Subroutine PRICEL returns:
 Original cell was already a primitive cell.
 

 Routine SETGRP: Setting up the symmetry group for a 
 hexagonal supercell.


 Subroutine GETGRP returns: Found  1 space group operations
 (whereof  1 operations were pure point group operations)
 out of a pool of 24 trial point group operations.


The constrained configuration has the point symmetry C_1 .


 Subroutine INISYM returns: Found  1 space group operations
 (whereof  1 operations are pure point group operations),
 and found     1 'primitive' translations

 
 
 KPOINTS: pymatgen 4.7.6+ generated KPOINTS with g

Automatic generation of k-mesh.
Space group operators:
 irot       det(A)        alpha          n_x          n_y          n_z        tau_x        tau_y        tau_z
    1     1.000000     0.000001     1.000000     0.000000     0.000000     0.000000     0.000000     0.000000
 
 Subroutine IBZKPT returns following result:
 ===========================================
 
 Found     85 irreducible k-points:
 
 Following reciprocal coordinates:
            Coordinates               Weight
  0.000000  0.000000  0.000000      1.000000
  0.076923  0.000000  0.000000      2.000000
  0.153846  0.000000  0.000000      2.000000
  0.230769  0.000000  0.000000      2.000000
  0.307692  0.000000  0.000000      2.000000
  0.384615  0.000000  0.000000      2.000000
  0.461538  0.000000  0.000000      2.000000
  0.000000  0.076923  0.000000      2.000000
  0.076923  0.076923  0.000000      2.000000
  0.153846  0.076923  0.000000      2.000000
  0.230769  0.076923  0.000000      2.000000
  0.307692  0.076923  0.000000      2.000000
  0.384615  0.076923  0.000000      2.000000
  0.461538  0.076923  0.000000      2.000000
 -0.461538  0.076923  0.000000      2.000000
 -0.384615  0.076923  0.000000      2.000000
 -0.307692  0.076923  0.000000      2.000000
 -0.230769  0.076923  0.000000      2.000000
 -0.153846  0.076923  0.000000      2.000000
 -0.076923  0.076923  0.000000      2.000000
  0.000000  0.153846  0.000000      2.000000
  0.076923  0.153846  0.000000      2.000000
  0.153846  0.153846  0.000000      2.000000
  0.230769  0.153846  0.000000      2.000000
  0.307692  0.153846  0.000000      2.000000
  0.384615  0.153846  0.000000      2.000000
  0.461538  0.153846  0.000000      2.000000
 -0.461538  0.153846  0.000000      2.000000
 -0.384615  0.153846  0.000000      2.000000
 -0.307692  0.153846  0.000000      2.000000
 -0.230769  0.153846  0.000000      2.000000
 -0.153846  0.153846  0.000000      2.000000
 -0.076923  0.153846  0.000000      2.000000
  0.000000  0.230769  0.000000      2.000000
  0.076923  0.230769  0.000000      2.000000
  0.153846  0.230769  0.000000      2.000000
  0.230769  0.230769  0.000000      2.000000
  0.307692  0.230769  0.000000      2.000000
  0.384615  0.230769  0.000000      2.000000
  0.461538  0.230769  0.000000      2.000000
 -0.461538  0.230769  0.000000      2.000000
 -0.384615  0.230769  0.000000      2.000000
 -0.307692  0.230769  0.000000      2.000000
 -0.230769  0.230769  0.000000      2.000000
 -0.153846  0.230769  0.000000      2.000000
 -0.076923  0.230769  0.000000      2.000000
  0.000000  0.307692  0.000000      2.000000
  0.076923  0.307692  0.000000      2.000000
  0.153846  0.307692  0.000000      2.000000
  0.230769  0.307692  0.000000      2.000000
  0.307692  0.307692  0.000000      2.000000
  0.384615  0.307692  0.000000      2.000000
  0.461538  0.307692  0.000000      2.000000
 -0.461538  0.307692  0.000000      2.000000
 -0.384615  0.307692  0.000000      2.000000
 -0.307692  0.307692  0.000000      2.000000
 -0.230769  0.307692  0.000000      2.000000
 -0.153846  0.307692  0.000000      2.000000
 -0.076923  0.307692  0.000000      2.000000
  0.000000  0.384615  0.000000      2.000000
  0.076923  0.384615  0.000000      2.000000
  0.153846  0.384615  0.000000      2.000000
  0.230769  0.384615  0.000000      2.000000
  0.307692  0.384615  0.000000      2.000000
  0.384615  0.384615  0.000000      2.000000
  0.461538  0.384615  0.000000      2.000000
 -0.461538  0.384615  0.000000      2.000000
 -0.384615  0.384615  0.000000      2.000000
 -0.307692  0.384615  0.000000      2.000000
 -0.230769  0.384615  0.000000      2.000000
 -0.153846  0.384615  0.000000      2.000000
 -0.076923  0.384615  0.000000      2.000000
  0.000000  0.461538  0.000000      2.000000
  0.076923  0.461538  0.000000      2.000000
  0.153846  0.461538  0.000000      2.000000
  0.230769  0.461538  0.000000      2.000000
  0.307692  0.461538  0.000000      2.000000
  0.384615  0.461538  0.000000      2.000000
  0.461538  0.461538  0.000000      2.000000
 -0.461538  0.461538  0.000000      2.000000
 -0.384615  0.461538  0.000000      2.000000
 -0.307692  0.461538  0.000000      2.000000
 -0.230769  0.461538  0.000000      2.000000
 -0.153846  0.461538  0.000000      2.000000
 -0.076923  0.461538  0.000000      2.000000
 
 Following cartesian coordinates:
            Coordinates               Weight
  0.000000  0.000000  0.000000      1.000000
  0.015308 -0.008838  0.000000      2.000000
  0.030616 -0.017676  0.000000      2.000000
  0.045924 -0.026514  0.000000      2.000000
  0.061233 -0.035353  0.000000      2.000000
  0.076541 -0.044191  0.000000      2.000000
  0.091849 -0.053029  0.000000      2.000000
  0.000000  0.017676  0.000000      2.000000
  0.015308  0.008838  0.000000      2.000000
  0.030616 -0.000000  0.000000      2.000000
  0.045924 -0.008838  0.000000      2.000000
  0.061233 -0.017676  0.000000      2.000000
  0.076541 -0.026514  0.000000      2.000000
  0.091849 -0.035353  0.000000      2.000000
 -0.091849  0.070705  0.000000      2.000000
 -0.076541  0.061867  0.000000      2.000000
 -0.061233  0.053029  0.000000      2.000000
 -0.045924  0.044191  0.000000      2.000000
 -0.030616  0.035353  0.000000      2.000000
 -0.015308  0.026514  0.000000      2.000000
  0.000000  0.035353  0.000000      2.000000
  0.015308  0.026514  0.000000      2.000000
  0.030616  0.017676  0.000000      2.000000
  0.045924  0.008838  0.000000      2.000000
  0.061233  0.000000  0.000000      2.000000
  0.076541 -0.008838  0.000000      2.000000
  0.091849 -0.017676  0.000000      2.000000
 -0.091849  0.088382  0.000000      2.000000
 -0.076541  0.079543  0.000000      2.000000
 -0.061233  0.070705  0.000000      2.000000
 -0.045924  0.061867  0.000000      2.000000
 -0.030616  0.053029  0.000000      2.000000
 -0.015308  0.044191  0.000000      2.000000
  0.000000  0.053029  0.000000      2.000000
  0.015308  0.044191  0.000000      2.000000
  0.030616  0.035353  0.000000      2.000000
  0.045924  0.026514  0.000000      2.000000
  0.061233  0.017676  0.000000      2.000000
  0.076541  0.008838  0.000000      2.000000
  0.091849  0.000000  0.000000      2.000000
 -0.091849  0.106058  0.000000      2.000000
 -0.076541  0.097220  0.000000      2.000000
 -0.061233  0.088382  0.000000      2.000000
 -0.045924  0.079543  0.000000      2.000000
 -0.030616  0.070705  0.000000      2.000000
 -0.015308  0.061867  0.000000      2.000000
  0.000000  0.070705  0.000000      2.000000
  0.015308  0.061867  0.000000      2.000000
  0.030616  0.053029  0.000000      2.000000
  0.045924  0.044191  0.000000      2.000000
  0.061233  0.035353  0.000000      2.000000
  0.076541  0.026514  0.000000      2.000000
  0.091849  0.017676  0.000000      2.000000
 -0.091849  0.123734  0.000000      2.000000
 -0.076541  0.114896  0.000000      2.000000
 -0.061233  0.106058  0.000000      2.000000
 -0.045924  0.097220  0.000000      2.000000
 -0.030616  0.088382  0.000000      2.000000
 -0.015308  0.079543  0.000000      2.000000
  0.000000  0.088382  0.000000      2.000000
  0.015308  0.079543  0.000000      2.000000
  0.030616  0.070705  0.000000      2.000000
  0.045924  0.061867  0.000000      2.000000
  0.061233  0.053029  0.000000      2.000000
  0.076541  0.044191  0.000000      2.000000
  0.091849  0.035353  0.000000      2.000000
 -0.091849  0.141411  0.000000      2.000000
 -0.076541  0.132572  0.000000      2.000000
 -0.061233  0.123734  0.000000      2.000000
 -0.045924  0.114896  0.000000      2.000000
 -0.030616  0.106058  0.000000      2.000000
 -0.015308  0.097220  0.000000      2.000000
  0.000000  0.106058  0.000000      2.000000
  0.015308  0.097220  0.000000      2.000000
  0.030616  0.088382  0.000000      2.000000
  0.045924  0.079543  0.000000      2.000000
  0.061233  0.070705  0.000000      2.000000
  0.076541  0.061867  0.000000      2.000000
  0.091849  0.053029  0.000000      2.000000
 -0.091849  0.159087  0.000000      2.000000
 -0.076541  0.150249  0.000000      2.000000
 -0.061233  0.141411  0.000000      2.000000
 -0.045924  0.132572  0.000000      2.000000
 -0.030616  0.123734  0.000000      2.000000
 -0.015308  0.114896  0.000000      2.000000
 


--------------------------------------------------------------------------------------------------------




 Dimension of arrays:
   k-points           NKPTS =     85   k-points in BZ     NKDIM =     85   number of bands    NBANDS=     16
   number of dos      NEDOS =   1000   number of ions     NIONS =      2
   non local maximal  LDIM  =      6   non local SUM 2l+1 LMDIM =     18
   total plane-waves  NPLWV = 806400
   max r-space proj   IRMAX =   6352   max aug-charges    IRDMAX=  31839
   dimension x,y,z NGX =    40 NGY =   40 NGZ =  504
   dimension x,y,z NGXF=    80 NGYF=   80 NGZF= 1008
   support grid    NGXF=    80 NGYF=   80 NGZF= 1008
   ions per type =               1   1
 NGX,Y,Z   is equivalent  to a cutoff of  13.23, 13.23, 12.36 a.u.
 NGXF,Y,Z  is equivalent  to a cutoff of  26.47, 26.47, 24.72 a.u.


 I would recommend the setting:
   dimension x,y,z NGX =    37 NGY =   37 NGZ =  504
 SYSTEM =  unknown system                          
 POSCAR =  Ag21                                    

 Startparameter for this run:
   NWRITE =      2    write-flag & timer
   PREC   = accura    normal or accurate (medium, high low for compatibility)
   ISTART =      0    job   : 0-new  1-cont  2-samecut
   ICHARG =      1    charge: 1-file 2-atom 10-const
   ISPIN  =      1    spin polarized calculation?
   LNONCOLLINEAR =      F non collinear calculations
   LSORBIT =      F    spin-orbit coupling
   INIWAV =      1    electr: 0-lowe 1-rand  2-diag
   LASPH  =      F    aspherical Exc in radial PAW
   METAGGA=      F    non-selfconsistent MetaGGA calc.

 Electronic Relaxation 1
   ENCUT  =  520.0 eV  38.22 Ry    6.18 a.u.   9.34  9.34126.03*2*pi/ulx,y,z
   ENINI  =  520.0     initial cutoff
   ENAUG  =  532.8 eV  augmentation charge cutoff
   NELM   =    100;   NELMIN=  2; NELMDL= -5     # of ELM steps 
   EDIFF  = 0.1E-04   stopping-criterion for ELM
   LREAL  =      T    real-space projection
   NLSPLINE    = F    spline interpolate recip. space projectors
   LCOMPAT=      F    compatible to vasp.4.4
   GGA_COMPAT  = T    GGA compatible to vasp.4.4-vasp.4.6
   LMAXPAW     = -100 max onsite density
   LMAXMIX     =    2 max onsite mixed and CHGCAR
   VOSKOWN=      0    Vosko Wilk Nusair interpolation
   ROPT   =   -0.00025  -0.00025
 Ionic relaxation
   EDIFFG = -.1E-02   stopping-criterion for IOM
   NSW    =      0    number of steps for IOM
   NBLOCK =      1;   KBLOCK =      1    inner block; outer block 
   IBRION =     -1    ionic relax: 0-MD 1-quasi-New 2-CG
   NFREE  =      0    steps in history (QN), initial steepest desc. (CG)
   ISIF   =      2    stress and relaxation
   IWAVPR =     10    prediction:  0-non 1-charg 2-wave 3-comb
   ISYM   =      2    0-nonsym 1-usesym 2-fastsym
   LCORR  =      T    Harris-Foulkes like correction to forces

   POTIM  = 0.5000    time-step for ionic-motion
   TEIN   =    0.0    initial temperature
   TEBEG  =    0.0;   TEEND  =   0.0 temperature during run
   SMASS  =  -3.00    Nose mass-parameter (am)
   estimated Nose-frequenzy (Omega)   =  0.10E-29 period in steps =****** mass=  -0.577E-27a.u.
   SCALEE = 1.0000    scale energy and forces
   NPACO  =    256;   APACO  = 16.0  distance and # of slots for P.C.
   PSTRESS=    0.0 pullay stress

  Mass of Ions in am
   POMASS = 107.87127.60
  Ionic Valenz
   ZVAL   =  17.00  6.00
  Atomic Wigner-Seitz radii
   RWIGS  =  -1.00 -1.00
  virtual crystal weights 
   VCA    =   1.00  1.00
   NELECT =      23.0000    total number of electrons
   NUPDOWN=      -1.0000    fix difference up-down

 DOS related values:
   EMIN   =  10.00;   EMAX   =-10.00  energy-range for DOS
   EFERMI =   0.00
   ISMEAR =     1;   SIGMA  =   0.05  broadening in eV -4-tet -1-fermi 0-gaus

 Electronic relaxation 2 (details)
   IALGO  =     68    algorithm
   LDIAG  =      T    sub-space diagonalisation (order eigenvalues)
   LSUBROT=      F    optimize rotation matrix (better conditioning)
   TURBO    =      0    0=normal 1=particle mesh
   IRESTART =      0    0=no restart 2=restart with 2 vectors
   NREBOOT  =      0    no. of reboots
   NMIN     =      0    reboot dimension
   EREF     =   0.00    reference energy to select bands
   IMIX   =      4    mixing-type and parameters
     AMIX     =   0.40;   BMIX     =  1.00
     AMIX_MAG =   1.60;   BMIX_MAG =  1.00
     AMIN     =   0.10
     WC   =   100.;   INIMIX=   1;  MIXPRE=   1;  MAXMIX= -45

 Intra band minimization:
   WEIMIN = 0.0000     energy-eigenvalue tresh-hold
   EBREAK =  0.16E-06  absolut break condition
   DEPER  =   0.30     relativ break condition  

   TIME   =   0.40     timestep for ELM

  volume/ion in A,a.u.               =     741.11      5001.23
  Fermi-wavevector in a.u.,A,eV,Ry     =   0.408333  0.771637  2.268575  0.166736
  Thomas-Fermi vector in A             =   1.362577
 
 Write flags
   LWAVE  =      T    write WAVECAR
   LCHARG =      T    write CHGCAR
   LVTOT  =      F    write LOCPOT, total local potential
   LVHAR  =      F    write LOCPOT, Hartree potential only
   LELF   =      F    write electronic localiz. function (ELF)
   LORBIT =     11    0 simple, 1 ext, 2 COOP (PROOUT)


 Dipole corrections
   LMONO  =      F    monopole corrections only (constant potential shift)
   LDIPOL =      F    correct potential (dipole corrections)
   IDIPOL =      0    1-x, 2-y, 3-z, 4-all directions 
   EPSILON=  1.0000000 bulk dielectric constant

 Exchange correlation treatment:
   GGA     =    --    GGA type
   LEXCH   =     8    internal setting for exchange type
   VOSKOWN=      0    Vosko Wilk Nusair interpolation
   LHFCALC =     F    Hartree Fock is set to
   LHFONE  =     F    Hartree Fock one center treatment
   AEXX    =    0.0000 exact exchange contribution

 Linear response parameters
   LEPSILON=     F    determine dielectric tensor
   LRPA    =     F    only Hartree local field effects (RPA)
   LNABLA  =     F    use nabla operator in PAW spheres
   LVEL    =     F    velocity operator in full k-point grid
   LINTERFAST=   F  fast interpolation
   KINTER  =     0    interpolate to denser k-point grid
   CSHIFT  =0.1000    complex shift for real part using Kramers Kronig
   OMEGAMAX=  -1.0    maximum frequency
   DEG_THRESHOLD= 0.2000000E-02 threshold for treating states as degnerate
   RTIME   =    0.100 relaxation time in fs

 Orbital magnetization related:
   ORBITALMAG=     F  switch on orbital magnetization
   LCHIMAG   =     F  perturbation theory with respect to B field
   DQ        =  0.001000  dq finite difference perturbation B field


 ----------------------------------------------------------------------------- 
|                                                                             |
|           W    W    AA    RRRRR   N    N  II  N    N   GGGG   !!!           |
|           W    W   A  A   R    R  NN   N  II  NN   N  G    G  !!!           |
|           W    W  A    A  R    R  N N  N  II  N N  N  G       !!!           |
|           W WW W  AAAAAA  RRRRR   N  N N  II  N  N N  G  GGG   !            |
|           WW  WW  A    A  R   R   N   NN  II  N   NN  G    G                |
|           W    W  A    A  R    R  N    N  II  N    N   GGGG   !!!           |
|                                                                             |
|      One of the lattice vectors is very long (>50 A), but AMIN is rather    |
|      large. This can spoil convergence since charge sloshing might occur    |
|      along the long lattice vector. If problems with convergence are        |
|      observed, try to decrease AMIN to a smaller values (e.g. 0.01).        |
|      Note: this warning only applies if the selfconsistency cycle is used.  |
|                                                                             |
 ----------------------------------------------------------------------------- 



--------------------------------------------------------------------------------------------------------


 Static calculation
 charge density and potential will be updated during run
 non-spin polarized calculation
 RMM-DIIS sequential band-by-band and
  variant of blocked Davidson during initial phase
 perform sub-space diagonalisation
    before iterative eigenvector-optimisation
 modified Broyden-mixing scheme, WC =      100.0
 initial mixing is a Kerker type mixing with AMIX =  0.4000 and BMIX =      1.0000
 Hartree-type preconditioning will be used
 using additional bands            4
 real space projection scheme for non local part
 use partial core corrections
 calculate Harris-corrections to forces 
   (improved forces if not selfconsistent)
 use gradient corrections 
 use of overlap-Matrix (Vanderbilt PP)
 Methfessel and Paxton  Order N= 1 SIGMA  =   0.05


--------------------------------------------------------------------------------------------------------


  energy-cutoff  :      520.00
  volume of cell :     1482.21
      direct lattice vectors                 reciprocal lattice vectors
     5.024974918  0.000000000  0.000000000     0.199005968 -0.114896149  0.000000000
     2.512487459  4.351755932  0.000000000     0.000000000  0.229792299  0.000000000
     0.000000000  0.000000000 67.781557949     0.000000000  0.000000000  0.014753276

  length of vectors
     5.024974918  5.024974918 67.781557949     0.229792299  0.229792299  0.014753276


 
 k-points in units of 2pi/SCALE and weight: pymatgen 4.7.6+ generated KPOINTS with g
   0.00000000  0.00000000  0.00000000       0.006
   0.01530815 -0.00883817  0.00000000       0.012
   0.03061630 -0.01767633  0.00000000       0.012
   0.04592445 -0.02651450  0.00000000       0.012
   0.06123261 -0.03535266  0.00000000       0.012
   0.07654076 -0.04419083  0.00000000       0.012
   0.09184891 -0.05302899  0.00000000       0.012
   0.00000000  0.01767633  0.00000000       0.012
   0.01530815  0.00883817  0.00000000       0.012
   0.03061630 -0.00000000  0.00000000       0.012
   0.04592445 -0.00883817  0.00000000       0.012
   0.06123261 -0.01767633  0.00000000       0.012
   0.07654076 -0.02651450  0.00000000       0.012
   0.09184891 -0.03535266  0.00000000       0.012
  -0.09184891  0.07070532  0.00000000       0.012
  -0.07654076  0.06186716  0.00000000       0.012
  -0.06123261  0.05302899  0.00000000       0.012
  -0.04592445  0.04419083  0.00000000       0.012
  -0.03061630  0.03535266  0.00000000       0.012
  -0.01530815  0.02651450  0.00000000       0.012
   0.00000000  0.03535266  0.00000000       0.012
   0.01530815  0.02651450  0.00000000       0.012
   0.03061630  0.01767633  0.00000000       0.012
   0.04592445  0.00883817  0.00000000       0.012
   0.06123261  0.00000000  0.00000000       0.012
   0.07654076 -0.00883817  0.00000000       0.012
   0.09184891 -0.01767633  0.00000000       0.012
  -0.09184891  0.08838165  0.00000000       0.012
  -0.07654076  0.07954349  0.00000000       0.012
  -0.06123261  0.07070532  0.00000000       0.012
  -0.04592445  0.06186716  0.00000000       0.012
  -0.03061630  0.05302899  0.00000000       0.012
  -0.01530815  0.04419083  0.00000000       0.012
   0.00000000  0.05302899  0.00000000       0.012
   0.01530815  0.04419083  0.00000000       0.012
   0.03061630  0.03535266  0.00000000       0.012
   0.04592445  0.02651450  0.00000000       0.012
   0.06123261  0.01767633  0.00000000       0.012
   0.07654076  0.00883817  0.00000000       0.012
   0.09184891  0.00000000  0.00000000       0.012
  -0.09184891  0.10605798  0.00000000       0.012
  -0.07654076  0.09721982  0.00000000       0.012
  -0.06123261  0.08838165  0.00000000       0.012
  -0.04592445  0.07954349  0.00000000       0.012
  -0.03061630  0.07070532  0.00000000       0.012
  -0.01530815  0.06186716  0.00000000       0.012
   0.00000000  0.07070532  0.00000000       0.012
   0.01530815  0.06186716  0.00000000       0.012
   0.03061630  0.05302899  0.00000000       0.012
   0.04592445  0.04419083  0.00000000       0.012
   0.06123261  0.03535266  0.00000000       0.012
   0.07654076  0.02651450  0.00000000       0.012
   0.09184891  0.01767633  0.00000000       0.012
  -0.09184891  0.12373431  0.00000000       0.012
  -0.07654076  0.11489615  0.00000000       0.012
  -0.06123261  0.10605798  0.00000000       0.012
  -0.04592445  0.09721982  0.00000000       0.012
  -0.03061630  0.08838165  0.00000000       0.012
  -0.01530815  0.07954349  0.00000000       0.012
   0.00000000  0.08838165  0.00000000       0.012
   0.01530815  0.07954349  0.00000000       0.012
   0.03061630  0.07070532  0.00000000       0.012
   0.04592445  0.06186716  0.00000000       0.012
   0.06123261  0.05302899  0.00000000       0.012
   0.07654076  0.04419083  0.00000000       0.012
   0.09184891  0.03535266  0.00000000       0.012
  -0.09184891  0.14141065  0.00000000       0.012
  -0.07654076  0.13257248  0.00000000       0.012
  -0.06123261  0.12373431  0.00000000       0.012
  -0.04592445  0.11489615  0.00000000       0.012
  -0.03061630  0.10605798  0.00000000       0.012
  -0.01530815  0.09721982  0.00000000       0.012
   0.00000000  0.10605798  0.00000000       0.012
   0.01530815  0.09721982  0.00000000       0.012
   0.03061630  0.08838165  0.00000000       0.012
   0.04592445  0.07954349  0.00000000       0.012
   0.06123261  0.07070532  0.00000000       0.012
   0.07654076  0.06186716  0.00000000       0.012
   0.09184891  0.05302899  0.00000000       0.012
  -0.09184891  0.15908698  0.00000000       0.012
  -0.07654076  0.15024881  0.00000000       0.012
  -0.06123261  0.14141065  0.00000000       0.012
  -0.04592445  0.13257248  0.00000000       0.012
  -0.03061630  0.12373431  0.00000000       0.012
  -0.01530815  0.11489615  0.00000000       0.012
 
 k-points in reciprocal lattice and weights: pymatgen 4.7.6+ generated KPOINTS with g
   0.00000000  0.00000000  0.00000000       0.006
   0.07692308  0.00000000  0.00000000       0.012
   0.15384615  0.00000000  0.00000000       0.012
   0.23076923  0.00000000  0.00000000       0.012
   0.30769231  0.00000000  0.00000000       0.012
   0.38461538  0.00000000  0.00000000       0.012
   0.46153846  0.00000000  0.00000000       0.012
   0.00000000  0.07692308  0.00000000       0.012
   0.07692308  0.07692308  0.00000000       0.012
   0.15384615  0.07692308  0.00000000       0.012
   0.23076923  0.07692308  0.00000000       0.012
   0.30769231  0.07692308  0.00000000       0.012
   0.38461538  0.07692308  0.00000000       0.012
   0.46153846  0.07692308  0.00000000       0.012
  -0.46153846  0.07692308  0.00000000       0.012
  -0.38461538  0.07692308  0.00000000       0.012
  -0.30769231  0.07692308  0.00000000       0.012
  -0.23076923  0.07692308  0.00000000       0.012
  -0.15384615  0.07692308  0.00000000       0.012
  -0.07692308  0.07692308  0.00000000       0.012
   0.00000000  0.15384615  0.00000000       0.012
   0.07692308  0.15384615  0.00000000       0.012
   0.15384615  0.15384615  0.00000000       0.012
   0.23076923  0.15384615  0.00000000       0.012
   0.30769231  0.15384615  0.00000000       0.012
   0.38461538  0.15384615  0.00000000       0.012
   0.46153846  0.15384615  0.00000000       0.012
  -0.46153846  0.15384615  0.00000000       0.012
  -0.38461538  0.15384615  0.00000000       0.012
  -0.30769231  0.15384615  0.00000000       0.012
  -0.23076923  0.15384615  0.00000000       0.012
  -0.15384615  0.15384615  0.00000000       0.012
  -0.07692308  0.15384615  0.00000000       0.012
   0.00000000  0.23076923  0.00000000       0.012
   0.07692308  0.23076923  0.00000000       0.012
   0.15384615  0.23076923  0.00000000       0.012
   0.23076923  0.23076923  0.00000000       0.012
   0.30769231  0.23076923  0.00000000       0.012
   0.38461538  0.23076923  0.00000000       0.012
   0.46153846  0.23076923  0.00000000       0.012
  -0.46153846  0.23076923  0.00000000       0.012
  -0.38461538  0.23076923  0.00000000       0.012
  -0.30769231  0.23076923  0.00000000       0.012
  -0.23076923  0.23076923  0.00000000       0.012
  -0.15384615  0.23076923  0.00000000       0.012
  -0.07692308  0.23076923  0.00000000       0.012
   0.00000000  0.30769231  0.00000000       0.012
   0.07692308  0.30769231  0.00000000       0.012
   0.15384615  0.30769231  0.00000000       0.012
   0.23076923  0.30769231  0.00000000       0.012
   0.30769231  0.30769231  0.00000000       0.012
   0.38461538  0.30769231  0.00000000       0.012
   0.46153846  0.30769231  0.00000000       0.012
  -0.46153846  0.30769231  0.00000000       0.012
  -0.38461538  0.30769231  0.00000000       0.012
  -0.30769231  0.30769231  0.00000000       0.012
  -0.23076923  0.30769231  0.00000000       0.012
  -0.15384615  0.30769231  0.00000000       0.012
  -0.07692308  0.30769231  0.00000000       0.012
   0.00000000  0.38461538  0.00000000       0.012
   0.07692308  0.38461538  0.00000000       0.012
   0.15384615  0.38461538  0.00000000       0.012
   0.23076923  0.38461538  0.00000000       0.012
   0.30769231  0.38461538  0.00000000       0.012
   0.38461538  0.38461538  0.00000000       0.012
   0.46153846  0.38461538  0.00000000       0.012
  -0.46153846  0.38461538  0.00000000       0.012
  -0.38461538  0.38461538  0.00000000       0.012
  -0.30769231  0.38461538  0.00000000       0.012
  -0.23076923  0.38461538  0.00000000       0.012
  -0.15384615  0.38461538  0.00000000       0.012
  -0.07692308  0.38461538  0.00000000       0.012
   0.00000000  0.46153846  0.00000000       0.012
   0.07692308  0.46153846  0.00000000       0.012
   0.15384615  0.46153846  0.00000000       0.012
   0.23076923  0.46153846  0.00000000       0.012
   0.30769231  0.46153846  0.00000000       0.012
   0.38461538  0.46153846  0.00000000       0.012
   0.46153846  0.46153846  0.00000000       0.012
  -0.46153846  0.46153846  0.00000000       0.012
  -0.38461538  0.46153846  0.00000000       0.012
  -0.30769231  0.46153846  0.00000000       0.012
  -0.23076923  0.46153846  0.00000000       0.012
  -0.15384615  0.46153846  0.00000000       0.012
  -0.07692308  0.46153846  0.00000000       0.012
 
 position of ions in fractional coordinates (direct lattice) 
   0.99759950  0.33771153  0.24754869
   0.66395081  0.00516671  0.24766421
 
 position of ions in cartesian coordinates  (Angst):
   5.86140844  1.46963815 16.77923616
   3.34931747  0.02248425 16.78706593
 


--------------------------------------------------------------------------------------------------------


 k-point  1 :   0.0000 0.0000 0.0000  plane waves:   40093
 k-point  2 :   0.0769 0.0000 0.0000  plane waves:   40023
 k-point  3 :   0.1538 0.0000 0.0000  plane waves:   39970
 k-point  4 :   0.2308 0.0000 0.0000  plane waves:   39936
 k-point  5 :   0.3077 0.0000 0.0000  plane waves:   39904
 k-point  6 :   0.3846 0.0000 0.0000  plane waves:   39888
 k-point  7 :   0.4615 0.0000 0.0000  plane waves:   39896
 k-point  8 :   0.0000 0.0769 0.0000  plane waves:   40023
 k-point  9 :   0.0769 0.0769 0.0000  plane waves:   40023
 k-point 10 :   0.1538 0.0769 0.0000  plane waves:   40003
 k-point 11 :   0.2308 0.0769 0.0000  plane waves:   39984
 k-point 12 :   0.3077 0.0769 0.0000  plane waves:   39956
 k-point 13 :   0.3846 0.0769 0.0000  plane waves:   39894
 k-point 14 :   0.4615 0.0769 0.0000  plane waves:   39874
 k-point 15 :  -0.4615 0.0769 0.0000  plane waves:   39902
 k-point 16 :  -0.3846 0.0769 0.0000  plane waves:   39874
 k-point 17 :  -0.3077 0.0769 0.0000  plane waves:   39894
 k-point 18 :  -0.2308 0.0769 0.0000  plane waves:   39956
 k-point 19 :  -0.1538 0.0769 0.0000  plane waves:   39984
 k-point 20 :  -0.0769 0.0769 0.0000  plane waves:   40003
 k-point 21 :   0.0000 0.1538 0.0000  plane waves:   39970
 k-point 22 :   0.0769 0.1538 0.0000  plane waves:   40003
 k-point 23 :   0.1538 0.1538 0.0000  plane waves:   39970
 k-point 24 :   0.2308 0.1538 0.0000  plane waves:   39984
 k-point 25 :   0.3077 0.1538 0.0000  plane waves:   39941
 k-point 26 :   0.3846 0.1538 0.0000  plane waves:   39944
 k-point 27 :   0.4615 0.1538 0.0000  plane waves:   39870
 k-point 28 :  -0.4615 0.1538 0.0000  plane waves:   39891
 k-point 29 :  -0.3846 0.1538 0.0000  plane waves:   39891
 k-point 30 :  -0.3077 0.1538 0.0000  plane waves:   39870
 k-point 31 :  -0.2308 0.1538 0.0000  plane waves:   39944
 k-point 32 :  -0.1538 0.1538 0.0000  plane waves:   39941
 k-point 33 :  -0.0769 0.1538 0.0000  plane waves:   39984
 k-point 34 :   0.0000 0.2308 0.0000  plane waves:   39936
 k-point 35 :   0.0769 0.2308 0.0000  plane waves:   39984
 k-point 36 :   0.1538 0.2308 0.0000  plane waves:   39984
 k-point 37 :   0.2308 0.2308 0.0000  plane waves:   39936
 k-point 38 :   0.3077 0.2308 0.0000  plane waves:   39956
 k-point 39 :   0.3846 0.2308 0.0000  plane waves:   39944
 k-point 40 :   0.4615 0.2308 0.0000  plane waves:   39867
 k-point 41 :  -0.4615 0.2308 0.0000  plane waves:   39850
 k-point 42 :  -0.3846 0.2308 0.0000  plane waves:   39808
 k-point 43 :  -0.3077 0.2308 0.0000  plane waves:   39850
 k-point 44 :  -0.2308 0.2308 0.0000  plane waves:   39867
 k-point 45 :  -0.1538 0.2308 0.0000  plane waves:   39944
 k-point 46 :  -0.0769 0.2308 0.0000  plane waves:   39956
 k-point 47 :   0.0000 0.3077 0.0000  plane waves:   39904
 k-point 48 :   0.0769 0.3077 0.0000  plane waves:   39956
 k-point 49 :   0.1538 0.3077 0.0000  plane waves:   39941
 k-point 50 :   0.2308 0.3077 0.0000  plane waves:   39956
 k-point 51 :   0.3077 0.3077 0.0000  plane waves:   39904
 k-point 52 :   0.3846 0.3077 0.0000  plane waves:   39894
 k-point 53 :   0.4615 0.3077 0.0000  plane waves:   39870
 k-point 54 :  -0.4615 0.3077 0.0000  plane waves:   39850
 k-point 55 :  -0.3846 0.3077 0.0000  plane waves:   39761
 k-point 56 :  -0.3077 0.3077 0.0000  plane waves:   39761
 k-point 57 :  -0.2308 0.3077 0.0000  plane waves:   39850
 k-point 58 :  -0.1538 0.3077 0.0000  plane waves:   39870
 k-point 59 :  -0.0769 0.3077 0.0000  plane waves:   39894
 k-point 60 :   0.0000 0.3846 0.0000  plane waves:   39888
 k-point 61 :   0.0769 0.3846 0.0000  plane waves:   39894
 k-point 62 :   0.1538 0.3846 0.0000  plane waves:   39944
 k-point 63 :   0.2308 0.3846 0.0000  plane waves:   39944
 k-point 64 :   0.3077 0.3846 0.0000  plane waves:   39894
 k-point 65 :   0.3846 0.3846 0.0000  plane waves:   39888
 k-point 66 :   0.4615 0.3846 0.0000  plane waves:   39874
 k-point 67 :  -0.4615 0.3846 0.0000  plane waves:   39891
 k-point 68 :  -0.3846 0.3846 0.0000  plane waves:   39808
 k-point 69 :  -0.3077 0.3846 0.0000  plane waves:   39761
 k-point 70 :  -0.2308 0.3846 0.0000  plane waves:   39808
 k-point 71 :  -0.1538 0.3846 0.0000  plane waves:   39891
 k-point 72 :  -0.0769 0.3846 0.0000  plane waves:   39874
 k-point 73 :   0.0000 0.4615 0.0000  plane waves:   39896
 k-point 74 :   0.0769 0.4615 0.0000  plane waves:   39874
 k-point 75 :   0.1538 0.4615 0.0000  plane waves:   39870
 k-point 76 :   0.2308 0.4615 0.0000  plane waves:   39867
 k-point 77 :   0.3077 0.4615 0.0000  plane waves:   39870
 k-point 78 :   0.3846 0.4615 0.0000  plane waves:   39874
 k-point 79 :   0.4615 0.4615 0.0000  plane waves:   39896
 k-point 80 :  -0.4615 0.4615 0.0000  plane waves:   39902
 k-point 81 :  -0.3846 0.4615 0.0000  plane waves:   39891
 k-point 82 :  -0.3077 0.4615 0.0000  plane waves:   39850
 k-point 83 :  -0.2308 0.4615 0.0000  plane waves:   39850
 k-point 84 :  -0.1538 0.4615 0.0000  plane waves:   39891
 k-point 85 :  -0.0769 0.4615 0.0000  plane waves:   39902

 maximum and minimum number of plane-waves per node :      2054     1962

 maximum number of plane-waves:     40093
 maximum index in each direction: 
   IXMAX=    9   IYMAX=    9   IZMAX=  126
   IXMIN=   -9   IYMIN=   -9   IZMIN= -126

 NGX is ok and might be reduce to  38
 NGY is ok and might be reduce to  38
 WARNING: aliasing errors must be expected set NGZ to 506 to avoid them
 aliasing errors are usually negligible using standard VASP settings
 and one can safely disregard these warnings

 real space projection operators:
  total allocation   :       1428.41 KBytes
  max/ min on nodes  :         79.32         61.19


 parallel 3D FFT for wavefunctions:
    minimum data exchange during FFTs selected (reduces bandwidth)
 parallel 3D FFT for charge:
    minimum data exchange during FFTs selected (reduces bandwidth)


 total amount of memory used by VASP on root node    69677. kBytes
========================================================================

   base      :      30000. kBytes
   nonlr-proj:        307. kBytes
   fftplans  :       6611. kBytes
   grid      :      10658. kBytes
   one-center:         15. kBytes
   wavefun   :      22086. kBytes
 
     INWAV:  cpu time    0.0000: real time    0.0002
 Broyden mixing: mesh for mixing (old mesh)
   NGX = 19   NGY = 19   NGZ =253
  (NGX  = 80   NGY  = 80   NGZ  =***)
  gives a total of  91333 points

 initial charge density was supplied:
 charge density of overlapping atoms calculated
 number of electron      23.0000000 magnetization 
 keeping initial charge density in first step


--------------------------------------------------------------------------------------------------------


 Maximum index for non-local projection operator          361
 Maximum index for augmentation-charges          728 (set IRDMAX)


--------------------------------------------------------------------------------------------------------


 First call to EWALD:  gamma=   0.155
 Maximum number of real-space cells 6x 6x 1
 Maximum number of reciprocal cells 1x 1x14

 FEWALD executed in parallel
    FEWALD:  cpu time    0.0018: real time    0.0029


----------------------------------------- Iteration    1(   1)  ---------------------------------------


    POTLOK:  cpu time    0.1670: real time    0.1676
    SETDIJ:  cpu time    0.0095: real time    0.0096
     EDDAV:  cpu time    9.1903: real time    9.2130
       DOS:  cpu time    0.0022: real time    0.0022
    --------------------------------------------
      LOOP:  cpu time    9.3711: real time    9.3975

 eigenvalue-minimisations  :  4080
 total energy-change (2. order) : 0.1315365E+03  (-0.8115093E+03)
 number of electron      23.0000000 magnetization 
 augmentation part       23.0000000 magnetization 

 Free energy of the ion-electron system (eV)
  ---------------------------------------------------
  alpha Z        PSCENC =         1.90658155
  Ewald energy   TEWEN  =      9950.14567984
  -Hartree energ DENC   =    -12878.93385728
  -exchange      EXHF   =         0.00000000
  -V(xc)+E(xc)   XCENC  =        58.20443847
  PAW double counting   =      2866.05710944    -2798.47587809
  entropy T*S    EENTRO =         0.00033986
  eigenvalues    EBANDS =      -351.66106675
  atomic energy  EATOM  =      3284.29315156
  Solvation  Ediel_sol  =         0.00000000
  ---------------------------------------------------
  free energy    TOTEN  =       131.53649860 eV

  energy without entropy =      131.53615874  energy(sigma->0) =      131.53638531


--------------------------------------------------------------------------------------------------------




----------------------------------------- Iteration    1(   2)  ---------------------------------------


     EDDAV:  cpu time    7.6910: real time    7.7092
       DOS:  cpu time    0.0022: real time    0.0023
    --------------------------------------------
      LOOP:  cpu time    7.6943: real time    7.7135

 eigenvalue-minimisations  :  4280
 total energy-change (2. order) :-0.8193691E+02  (-0.7895212E+02)
 number of electron      23.0000000 magnetization 
 augmentation part       23.0000000 magnetization 

 Free energy of the ion-electron system (eV)
  ---------------------------------------------------
  alpha Z        PSCENC =         1.90658155
  Ewald energy   TEWEN  =      9950.14567984
  -Hartree energ DENC   =    -12878.93385728
  -exchange      EXHF   =         0.00000000
  -V(xc)+E(xc)   XCENC  =        58.20443847
  PAW double counting   =      2866.05710944    -2798.47587809
  entropy T*S    EENTRO =        -0.00000096
  eigenvalues    EBANDS =      -433.59763935
  atomic energy  EATOM  =      3284.29315156
  Solvation  Ediel_sol  =         0.00000000
  ---------------------------------------------------
  free energy    TOTEN  =        49.59958517 eV

  energy without entropy =       49.59958614  energy(sigma->0) =       49.59958549


--------------------------------------------------------------------------------------------------------




----------------------------------------- Iteration    1(   3)  ---------------------------------------


     EDDAV:  cpu time    7.7919: real time    7.8104
       DOS:  cpu time    0.0021: real time    0.0021
    --------------------------------------------
      LOOP:  cpu time    7.7962: real time    7.8158

 eigenvalue-minimisations  :  4432
 total energy-change (2. order) :-0.5026770E+02  (-0.4824814E+02)
 number of electron      23.0000000 magnetization 
 augmentation part       23.0000000 magnetization 

 Free energy of the ion-electron system (eV)
  ---------------------------------------------------
  alpha Z        PSCENC =         1.90658155
  Ewald energy   TEWEN  =      9950.14567984
  -Hartree energ DENC   =    -12878.93385728
  -exchange      EXHF   =         0.00000000
  -V(xc)+E(xc)   XCENC  =        58.20443847
  PAW double counting   =      2866.05710944    -2798.47587809
  entropy T*S    EENTRO =        -0.00020277
  eigenvalues    EBANDS =      -483.86514242
  atomic energy  EATOM  =      3284.29315156
  Solvation  Ediel_sol  =         0.00000000
  ---------------------------------------------------
  free energy    TOTEN  =        -0.66811970 eV

  energy without entropy =       -0.66791693  energy(sigma->0) =       -0.66805211


--------------------------------------------------------------------------------------------------------




----------------------------------------- Iteration    1(   4)  ---------------------------------------


     EDDAV:  cpu time    5.4363: real time    5.4491
       DOS:  cpu time    0.0023: real time    0.0023
    --------------------------------------------
      LOOP:  cpu time    5.4410: real time    5.4617

 eigenvalue-minimisations  :  2768
 total energy-change (2. order) :-0.4291704E+01  (-0.4196640E+01)
 number of electron      23.0000000 magnetization 
 augmentation part       23.0000000 magnetization 

 Free energy of the ion-electron system (eV)
  ---------------------------------------------------
  alpha Z        PSCENC =         1.90658155
  Ewald energy   TEWEN  =      9950.14567984
  -Hartree energ DENC   =    -12878.93385728
  -exchange      EXHF   =         0.00000000
  -V(xc)+E(xc)   XCENC  =        58.20443847
  PAW double counting   =      2866.05710944    -2798.47587809
  entropy T*S    EENTRO =        -0.00252750
  eigenvalues    EBANDS =      -488.15452187
  atomic energy  EATOM  =      3284.29315156
  Solvation  Ediel_sol  =         0.00000000
  ---------------------------------------------------
  free energy    TOTEN  =        -4.95982389 eV

  energy without entropy =       -4.95729638  energy(sigma->0) =       -4.95898138


--------------------------------------------------------------------------------------------------------




----------------------------------------- Iteration    1(   5)  ---------------------------------------


     EDDAV:  cpu time    6.7193: real time    6.7353
       DOS:  cpu time    0.0024: real time    0.0024
    CHARGE:  cpu time    0.2679: real time    0.2685
    MIXING:  cpu time    0.0072: real time    0.0073
    --------------------------------------------
      LOOP:  cpu time    6.9974: real time    7.0154

 eigenvalue-minimisations  :  3712
 total energy-change (2. order) :-0.7401727E-01  (-0.7321308E-01)
 number of electron      23.0000011 magnetization 
 augmentation part        5.7428798 magnetization 

 Broyden mixing:
  rms(total) = 0.36672E+00    rms(broyden)= 0.36671E+00
  rms(prec ) = 0.37021E+00
  weight for this iteration     100.00

 Free energy of the ion-electron system (eV)
  ---------------------------------------------------
  alpha Z        PSCENC =         1.90658155
  Ewald energy   TEWEN  =      9950.14567984
  -Hartree energ DENC   =    -12878.93385728
  -exchange      EXHF   =         0.00000000
  -V(xc)+E(xc)   XCENC  =        58.20443847
  PAW double counting   =      2866.05710944    -2798.47587809
  entropy T*S    EENTRO =        -0.00269836
  eigenvalues    EBANDS =      -488.22836829
  atomic energy  EATOM  =      3284.29315156
  Solvation  Ediel_sol  =         0.00000000
  ---------------------------------------------------
  free energy    TOTEN  =        -5.03384115 eV

  energy without entropy =       -5.03114280  energy(sigma->0) =       -5.03294170


--------------------------------------------------------------------------------------------------------




----------------------------------------- Iteration    1(   6)  ---------------------------------------


    POTLOK:  cpu time    0.1222: real time    0.1225
    SETDIJ:  cpu time    0.0057: real time    0.0057
    EDDIAG:  cpu time    0.8194: real time    0.8214
  RMM-DIIS:  cpu time    4.2799: real time    4.2900
    ORTHCH:  cpu time    0.0356: real time    0.0357
       DOS:  cpu time    0.0023: real time    0.0024
    CHARGE:  cpu time    0.2636: real time    0.2643
    MIXING:  cpu time    0.0073: real time    0.0073
    --------------------------------------------
      LOOP:  cpu time    5.5370: real time    5.5516

 eigenvalue-minimisations  :  2956
 total energy-change (2. order) : 0.1939422E+00  (-0.1881892E+00)
 number of electron      23.0000011 magnetization 
 augmentation part        6.0432025 magnetization 

 Broyden mixing:
  rms(total) = 0.37667E+00    rms(broyden)= 0.37666E+00
  rms(prec ) = 0.37713E+00
  weight for this iteration     100.00

 eigenvalues of (default mixing * dielectric matrix)
  average eigenvalue GAMMA=   0.4578
  0.4578

 Free energy of the ion-electron system (eV)
  ---------------------------------------------------
  alpha Z        PSCENC =         1.90658155
  Ewald energy   TEWEN  =      9950.14567984
  -Hartree energ DENC   =    -12853.93690893
  -exchange      EXHF   =         0.00000000
  -V(xc)+E(xc)   XCENC  =        57.54230867
  PAW double counting   =      2851.85932329    -2785.47458547
  entropy T*S    EENTRO =        -0.00132164
  eigenvalues    EBANDS =      -511.17412778
  atomic energy  EATOM  =      3284.29315156
  Solvation  Ediel_sol  =         0.00000000
  ---------------------------------------------------
  free energy    TOTEN  =        -4.83989891 eV

  energy without entropy =       -4.83857727  energy(sigma->0) =       -4.83945836


--------------------------------------------------------------------------------------------------------




----------------------------------------- Iteration    1(   7)  ---------------------------------------


    POTLOK:  cpu time    0.1137: real time    0.1154
    SETDIJ:  cpu time    0.0044: real time    0.0044
    EDDIAG:  cpu time    0.8155: real time    0.8175
  RMM-DIIS:  cpu time    4.5038: real time    4.5145
    ORTHCH:  cpu time    0.0352: real time    0.0353
       DOS:  cpu time    0.0023: real time    0.0023
    CHARGE:  cpu time    0.2661: real time    0.2667
    MIXING:  cpu time    0.0062: real time    0.0062
    --------------------------------------------
      LOOP:  cpu time    5.7484: real time    5.7658

 eigenvalue-minimisations  :  3055
 total energy-change (2. order) : 0.3610016E-01  (-0.4176250E-02)
 number of electron      23.0000011 magnetization 
 augmentation part        6.0083815 magnetization 

 Broyden mixing:
  rms(total) = 0.25189E+00    rms(broyden)= 0.25189E+00
  rms(prec ) = 0.25211E+00
  weight for this iteration     100.00

 eigenvalues of (default mixing * dielectric matrix)
  average eigenvalue GAMMA=   1.4380
  0.8134  2.0627

 Free energy of the ion-electron system (eV)
  ---------------------------------------------------
  alpha Z        PSCENC =         1.90658155
  Ewald energy   TEWEN  =      9950.14567984
  -Hartree energ DENC   =    -12858.22947927
  -exchange      EXHF   =         0.00000000
  -V(xc)+E(xc)   XCENC  =        57.66962504
  PAW double counting   =      2884.61852375    -2818.13505675
  entropy T*S    EENTRO =        -0.00047928
  eigenvalues    EBANDS =      -507.07234518
  atomic energy  EATOM  =      3284.29315156
  Solvation  Ediel_sol  =         0.00000000
  ---------------------------------------------------
  free energy    TOTEN  =        -4.80379875 eV

  energy without entropy =       -4.80331947  energy(sigma->0) =       -4.80363899


--------------------------------------------------------------------------------------------------------




----------------------------------------- Iteration    1(   8)  ---------------------------------------


    POTLOK:  cpu time    0.1102: real time    0.1130
    SETDIJ:  cpu time    0.0032: real time    0.0032
    EDDIAG:  cpu time    0.8177: real time    0.8197
  RMM-DIIS:  cpu time    4.2822: real time    4.2923
    ORTHCH:  cpu time    0.0355: real time    0.0356
       DOS:  cpu time    0.0023: real time    0.0023
    CHARGE:  cpu time    0.2615: real time    0.2622
    MIXING:  cpu time    0.0068: real time    0.0068
    --------------------------------------------
      LOOP:  cpu time    5.5217: real time    5.5395

 eigenvalue-minimisations  :  2943
 total energy-change (2. order) : 0.5107979E-02  (-0.1418886E-01)
 number of electron      23.0000011 magnetization 
 augmentation part        5.9365872 magnetization 

 Broyden mixing:
  rms(total) = 0.60697E-01    rms(broyden)= 0.60696E-01
  rms(prec ) = 0.60992E-01
  weight for this iteration     100.00

 eigenvalues of (default mixing * dielectric matrix)
  average eigenvalue GAMMA=   1.2253
  2.2302  0.7228  0.7228

 Free energy of the ion-electron system (eV)
  ---------------------------------------------------
  alpha Z        PSCENC =         1.90658155
  Ewald energy   TEWEN  =      9950.14567984
  -Hartree energ DENC   =    -12864.52675155
  -exchange      EXHF   =         0.00000000
  -V(xc)+E(xc)   XCENC  =        57.89009065
  PAW double counting   =      2972.53822313    -2906.06219734
  entropy T*S    EENTRO =        -0.00041934
  eigenvalues    EBANDS =      -500.98304927
  atomic energy  EATOM  =      3284.29315156
  Solvation  Ediel_sol  =         0.00000000
  ---------------------------------------------------
  free energy    TOTEN  =        -4.79869077 eV

  energy without entropy =       -4.79827143  energy(sigma->0) =       -4.79855099


--------------------------------------------------------------------------------------------------------




----------------------------------------- Iteration    1(   9)  ---------------------------------------


    POTLOK:  cpu time    0.1060: real time    0.1074
    SETDIJ:  cpu time    0.0032: real time    0.0032
    EDDIAG:  cpu time    0.8176: real time    0.8195
  RMM-DIIS:  cpu time    4.5079: real time    4.5185
    ORTHCH:  cpu time    0.0353: real time    0.0354
       DOS:  cpu time    0.0023: real time    0.0023
    CHARGE:  cpu time    0.2636: real time    0.2643
    MIXING:  cpu time    0.0061: real time    0.0061
    --------------------------------------------
      LOOP:  cpu time    5.7431: real time    5.7600

 eigenvalue-minimisations  :  3118
 total energy-change (2. order) : 0.4218712E-02  (-0.5550442E-03)
 number of electron      23.0000011 magnetization 
 augmentation part        5.9479742 magnetization 

 Broyden mixing:
  rms(total) = 0.37115E-01    rms(broyden)= 0.37115E-01
  rms(prec ) = 0.37257E-01
  weight for this iteration     100.00

 eigenvalues of (default mixing * dielectric matrix)
  average eigenvalue GAMMA=   1.3431
  2.3686  1.0420  1.0420  0.9198

 Free energy of the ion-electron system (eV)
  ---------------------------------------------------
  alpha Z        PSCENC =         1.90658155
  Ewald energy   TEWEN  =      9950.14567984
  -Hartree energ DENC   =    -12863.29897217
  -exchange      EXHF   =         0.00000000
  -V(xc)+E(xc)   XCENC  =        57.84692002
  PAW double counting   =      2973.92714608    -2907.51521858
  entropy T*S    EENTRO =        -0.00045979
  eigenvalues    EBANDS =      -502.09930057
  atomic energy  EATOM  =      3284.29315156
  Solvation  Ediel_sol  =         0.00000000
  ---------------------------------------------------
  free energy    TOTEN  =        -4.79447206 eV

  energy without entropy =       -4.79401227  energy(sigma->0) =       -4.79431879


--------------------------------------------------------------------------------------------------------




----------------------------------------- Iteration    1(  10)  ---------------------------------------


    POTLOK:  cpu time    0.1261: real time    0.1264
    SETDIJ:  cpu time    0.0051: real time    0.0052
    EDDIAG:  cpu time    0.8905: real time    0.8926
  RMM-DIIS:  cpu time    4.4591: real time    4.4697
    ORTHCH:  cpu time    0.0354: real time    0.0355
       DOS:  cpu time    0.0023: real time    0.0023
    CHARGE:  cpu time    0.2605: real time    0.2611
    MIXING:  cpu time    0.0068: real time    0.0068
    --------------------------------------------
      LOOP:  cpu time    5.7868: real time    5.8057

 eigenvalue-minimisations  :  3103
 total energy-change (2. order) : 0.1276408E-02  (-0.8586724E-03)
 number of electron      23.0000011 magnetization 
 augmentation part        5.9637033 magnetization 

 Broyden mixing:
  rms(total) = 0.78231E-02    rms(broyden)= 0.78222E-02
  rms(prec ) = 0.78562E-02
  weight for this iteration     100.00

 eigenvalues of (default mixing * dielectric matrix)
  average eigenvalue GAMMA=   1.4119
  2.4323  0.9304  0.9304  1.3832  1.3832

 Free energy of the ion-electron system (eV)
  ---------------------------------------------------
  alpha Z        PSCENC =         1.90658155
  Ewald energy   TEWEN  =      9950.14567984
  -Hartree energ DENC   =    -12862.30675783
  -exchange      EXHF   =         0.00000000
  -V(xc)+E(xc)   XCENC  =        57.80535933
  PAW double counting   =      2974.45573186    -2908.08158722
  entropy T*S    EENTRO =        -0.00049190
  eigenvalues    EBANDS =      -503.01086283
  atomic energy  EATOM  =      3284.29315156
  Solvation  Ediel_sol  =         0.00000000
  ---------------------------------------------------
  free energy    TOTEN  =        -4.79319565 eV

  energy without entropy =       -4.79270375  energy(sigma->0) =       -4.79303168


--------------------------------------------------------------------------------------------------------




----------------------------------------- Iteration    1(  11)  ---------------------------------------


    POTLOK:  cpu time    0.1040: real time    0.1054
    SETDIJ:  cpu time    0.0028: real time    0.0028
    EDDIAG:  cpu time    0.8097: real time    0.8116
  RMM-DIIS:  cpu time    4.7364: real time    4.7477
    ORTHCH:  cpu time    0.0354: real time    0.0355
       DOS:  cpu time    0.0022: real time    0.0022
    CHARGE:  cpu time    0.2648: real time    0.2654
    MIXING:  cpu time    0.0067: real time    0.0067
    --------------------------------------------
      LOOP:  cpu time    5.9630: real time    5.9805

 eigenvalue-minimisations  :  3274
 total energy-change (2. order) :-0.3526406E-04  (-0.5001500E-04)
 number of electron      23.0000011 magnetization 
 augmentation part        5.9599182 magnetization 

 Broyden mixing:
  rms(total) = 0.77171E-02    rms(broyden)= 0.77171E-02
  rms(prec ) = 0.77510E-02
  weight for this iteration     100.00

 eigenvalues of (default mixing * dielectric matrix)
  average eigenvalue GAMMA=   1.5698
  3.0698  2.3758  1.0451  1.0451  0.8967  0.9860

 Free energy of the ion-electron system (eV)
  ---------------------------------------------------
  alpha Z        PSCENC =         1.90658155
  Ewald energy   TEWEN  =      9950.14567984
  -Hartree energ DENC   =    -12863.01361568
  -exchange      EXHF   =         0.00000000
  -V(xc)+E(xc)   XCENC  =        57.82215666
  PAW double counting   =      2976.74516472    -2910.34833297
  entropy T*S    EENTRO =        -0.00047134
  eigenvalues    EBANDS =      -502.34354525
  atomic energy  EATOM  =      3284.29315156
  Solvation  Ediel_sol  =         0.00000000
  ---------------------------------------------------
  free energy    TOTEN  =        -4.79323091 eV

  energy without entropy =       -4.79275957  energy(sigma->0) =       -4.79307380


--------------------------------------------------------------------------------------------------------




----------------------------------------- Iteration    1(  12)  ---------------------------------------


    POTLOK:  cpu time    0.1038: real time    0.1057
    SETDIJ:  cpu time    0.0032: real time    0.0032
    EDDIAG:  cpu time    0.8210: real time    0.8230
  RMM-DIIS:  cpu time    4.4572: real time    4.4678
    ORTHCH:  cpu time    0.0353: real time    0.0354
       DOS:  cpu time    0.0024: real time    0.0024
    CHARGE:  cpu time    0.2610: real time    0.2616
    MIXING:  cpu time    0.0059: real time    0.0059
    --------------------------------------------
      LOOP:  cpu time    5.6908: real time    5.7088

 eigenvalue-minimisations  :  3080
 total energy-change (2. order) : 0.6803209E-04  (-0.2336799E-04)
 number of electron      23.0000011 magnetization 
 augmentation part        5.9623137 magnetization 

 Broyden mixing:
  rms(total) = 0.11013E-02    rms(broyden)= 0.11012E-02
  rms(prec ) = 0.11364E-02
  weight for this iteration     100.00

 eigenvalues of (default mixing * dielectric matrix)
  average eigenvalue GAMMA=   1.4867
  2.8698  2.3353  1.1416  1.1416  0.8639  1.0275  1.0275

 Free energy of the ion-electron system (eV)
  ---------------------------------------------------
  alpha Z        PSCENC =         1.90658155
  Ewald energy   TEWEN  =      9950.14567984
  -Hartree energ DENC   =    -12863.13494960
  -exchange      EXHF   =         0.00000000
  -V(xc)+E(xc)   XCENC  =        57.81722015
  PAW double counting   =      2976.35691763    -2909.95974909
  entropy T*S    EENTRO =        -0.00046257
  eigenvalues    EBANDS =      -502.21755236
  atomic energy  EATOM  =      3284.29315156
  Solvation  Ediel_sol  =         0.00000000
  ---------------------------------------------------
  free energy    TOTEN  =        -4.79316288 eV

  energy without entropy =       -4.79270031  energy(sigma->0) =       -4.79300869


--------------------------------------------------------------------------------------------------------




----------------------------------------- Iteration    1(  13)  ---------------------------------------


    POTLOK:  cpu time    0.1063: real time    0.1066
    SETDIJ:  cpu time    0.0029: real time    0.0029
    EDDIAG:  cpu time    0.8183: real time    0.8202
  RMM-DIIS:  cpu time    3.4848: real time    3.4931
    ORTHCH:  cpu time    0.0352: real time    0.0352
       DOS:  cpu time    0.0023: real time    0.0023
    CHARGE:  cpu time    0.2658: real time    0.2664
    MIXING:  cpu time    0.0071: real time    0.0071
    --------------------------------------------
      LOOP:  cpu time    4.7238: real time    4.7367

 eigenvalue-minimisations  :  2370
 total energy-change (2. order) :-0.1937389E-04  (-0.2993449E-05)
 number of electron      23.0000011 magnetization 
 augmentation part        5.9630770 magnetization 

 Broyden mixing:
  rms(total) = 0.14274E-02    rms(broyden)= 0.14274E-02
  rms(prec ) = 0.14530E-02
  weight for this iteration     100.00

 eigenvalues of (default mixing * dielectric matrix)
  average eigenvalue GAMMA=   1.7516
  4.0018  2.7053  2.3903  1.0354  1.0354  1.0699  0.8875  0.8875

 Free energy of the ion-electron system (eV)
  ---------------------------------------------------
  alpha Z        PSCENC =         1.90658155
  Ewald energy   TEWEN  =      9950.14567984
  -Hartree energ DENC   =    -12863.12895538
  -exchange      EXHF   =         0.00000000
  -V(xc)+E(xc)   XCENC  =        57.81528723
  PAW double counting   =      2975.95282680    -2909.56145245
  entropy T*S    EENTRO =        -0.00046592
  eigenvalues    EBANDS =      -502.21583549
  atomic energy  EATOM  =      3284.29315156
  Solvation  Ediel_sol  =         0.00000000
  ---------------------------------------------------
  free energy    TOTEN  =        -4.79318226 eV

  energy without entropy =       -4.79271634  energy(sigma->0) =       -4.79302695


--------------------------------------------------------------------------------------------------------




----------------------------------------- Iteration    1(  14)  ---------------------------------------


    POTLOK:  cpu time    0.1106: real time    0.1120
    SETDIJ:  cpu time    0.0030: real time    0.0030
    EDDIAG:  cpu time    0.9629: real time    0.9651
  RMM-DIIS:  cpu time    3.1826: real time    3.1901
    ORTHCH:  cpu time    0.0353: real time    0.0354
       DOS:  cpu time    0.0023: real time    0.0023
    CHARGE:  cpu time    0.2609: real time    0.2616
    MIXING:  cpu time    0.0071: real time    0.0071
    --------------------------------------------
      LOOP:  cpu time    4.5656: real time    4.5796

 eigenvalue-minimisations  :  1996
 total energy-change (2. order) :-0.4999822E-04  (-0.1963281E-05)
 number of electron      23.0000011 magnetization 
 augmentation part        5.9625393 magnetization 

 Broyden mixing:
  rms(total) = 0.30173E-03    rms(broyden)= 0.30172E-03
  rms(prec ) = 0.32357E-03
  weight for this iteration     100.00

 eigenvalues of (default mixing * dielectric matrix)
  average eigenvalue GAMMA=   1.6108
  3.9608  2.7439  2.3744  1.0427  1.0427  1.0518  0.8943  0.8943  0.4922

 Free energy of the ion-electron system (eV)
  ---------------------------------------------------
  alpha Z        PSCENC =         1.90658155
  Ewald energy   TEWEN  =      9950.14567984
  -Hartree energ DENC   =    -12863.48064030
  -exchange      EXHF   =         0.00000000
  -V(xc)+E(xc)   XCENC  =        57.81918844
  PAW double counting   =      2975.76203237    -2909.37472624
  entropy T*S    EENTRO =        -0.00045845
  eigenvalues    EBANDS =      -501.86404102
  atomic energy  EATOM  =      3284.29315156
  Solvation  Ediel_sol  =         0.00000000
  ---------------------------------------------------
  free energy    TOTEN  =        -4.79323225 eV

  energy without entropy =       -4.79277380  energy(sigma->0) =       -4.79307944


--------------------------------------------------------------------------------------------------------




----------------------------------------- Iteration    1(  15)  ---------------------------------------


    POTLOK:  cpu time    0.1040: real time    0.1063
    SETDIJ:  cpu time    0.0032: real time    0.0032
    EDDIAG:  cpu time    0.8126: real time    0.8145
  RMM-DIIS:  cpu time    3.1315: real time    3.1389
    ORTHCH:  cpu time    0.0354: real time    0.0355
       DOS:  cpu time    0.0023: real time    0.0023
    --------------------------------------------
      LOOP:  cpu time    4.0898: real time    4.1043

 eigenvalue-minimisations  :  2018
 total energy-change (2. order) :-0.8178336E-05  (-0.2823550E-06)
 number of electron      23.0000011 magnetization 
 augmentation part        5.9625393 magnetization 

 Free energy of the ion-electron system (eV)
  ---------------------------------------------------
  alpha Z        PSCENC =         1.90658155
  Ewald energy   TEWEN  =      9950.14567984
  -Hartree energ DENC   =    -12863.51381537
  -exchange      EXHF   =         0.00000000
  -V(xc)+E(xc)   XCENC  =        57.81965157
  PAW double counting   =      2975.81964819    -2909.43138031
  entropy T*S    EENTRO =        -0.00045753
  eigenvalues    EBANDS =      -501.83229993
  atomic energy  EATOM  =      3284.29315156
  Solvation  Ediel_sol  =         0.00000000
  ---------------------------------------------------
  free energy    TOTEN  =        -4.79324043 eV

  energy without entropy =       -4.79278290  energy(sigma->0) =       -4.79308792


--------------------------------------------------------------------------------------------------------




 average (electrostatic) potential at core
  the test charge radii are     0.9898  1.1897
  (the norm of the test charge is              1.0000)
       1-105.4174       2 -98.8739
 
 
 
 E-fermi :  -5.3397     XC(G=0):  -0.6496     alpha+bet : -0.4062


 k-point     1 :       0.0000    0.0000    0.0000
  band No.  band energies     occupation 
      1     -59.5047      2.00000
      2     -59.5033      2.00000
      3     -59.4019      2.00000
      4     -15.1425      2.00000
      5      -8.9653      2.00000
      6      -8.9637      2.00000
      7      -8.2081      2.00000
      8      -8.2062      2.00000
      9      -8.0876      2.00000
     10      -5.9802      2.00000
     11      -4.7362     -0.00000
     12      -4.7310     -0.00000
     13      -3.5180      0.00000
     14      -0.1687      0.00000
     15      -0.1538      0.00000
     16       0.3410      0.00000

 k-point     2 :       0.0769    0.0000    0.0000
  band No.  band energies     occupation 
      1     -59.5047      2.00000
      2     -59.5033      2.00000
      3     -59.4019      2.00000
      4     -15.1317      2.00000
      5      -8.9601      2.00000
      6      -8.9486      2.00000
      7      -8.2175      2.00000
      8      -8.2073      2.00000
      9      -8.0885      2.00000
     10      -5.9459      2.00000
     11      -5.0505     -0.00000
     12      -4.8021     -0.00000
     13      -3.2013      0.00000
     14      -0.1473      0.00000
     15      -0.1254      0.00000
     16       0.3904      0.00000

 k-point     3 :       0.1538    0.0000    0.0000
  band No.  band energies     occupation 
      1     -59.5047      2.00000
      2     -59.5033      2.00000
      3     -59.4019      2.00000
      4     -15.1016      2.00000
      5      -8.9426      2.00000
      6      -8.9043      2.00000
      7      -8.2440      2.00000
      8      -8.2089      2.00000
      9      -8.0925      2.00000
     10      -5.8501      2.00000
     11      -5.6140      2.00000
     12      -4.9868     -0.00000
     13      -2.6565      0.00000
     14      -0.1450      0.00000
     15      -0.0212      0.00000
     16       0.5269      0.00000

 k-point     4 :       0.2308    0.0000    0.0000
  band No.  band energies     occupation 
      1     -59.5047      2.00000
      2     -59.5033      2.00000
      3     -59.4019      2.00000
      4     -15.0583      2.00000
      5      -8.9048      2.00000
      6      -8.8376      2.00000
      7      -8.2789      2.00000
      8      -8.2111      2.00000
      9      -8.1037      2.00000
     10      -6.1762      2.00000
     11      -5.7118      2.00000
     12      -5.2319     -0.00939
     13      -2.1935      0.00000
     14      -0.2126      0.00000
     15       0.1139      0.00000
     16       0.7084      0.00000

 k-point     5 :       0.3077    0.0000    0.0000
  band No.  band energies     occupation 
      1     -59.5047      2.00000
      2     -59.5033      2.00000
      3     -59.4019      2.00000
      4     -15.0114      2.00000
      5      -8.8385      2.00000
      6      -8.7605      2.00000
      7      -8.3133      2.00000
      8      -8.2134      2.00000
      9      -8.1301      2.00000
[...]
  band No.  band energies     occupation 
      1     -59.5047      2.00000
      2     -59.5033      2.00000
      3     -59.4019      2.00000
      4     -14.9274      2.00000
      5      -8.6732      2.00000
      6      -8.5394      2.00000
      7      -8.3553      2.00000
      8      -8.2306      2.00000
      9      -8.1905      2.00000
     10      -7.1799      2.00000
     11      -6.4499      2.00000
     12      -5.2775     -0.07079
     13      -0.7545      0.00000
     14      -0.5928      0.00000
     15       1.3518      0.00000
     16       1.3683      0.00000

 k-point    71 :      -0.1538    0.3846    0.0000
  band No.  band energies     occupation 
      1     -59.5047      2.00000
      2     -59.5034      2.00000
      3     -59.4019      2.00000
      4     -14.9389      2.00000
      5      -8.6940      2.00000
      6      -8.5623      2.00000
      7      -8.3529      2.00000
      8      -8.2250      2.00000
      9      -8.2211      2.00000
     10      -7.1950      2.00000
     11      -6.1509      2.00000
     12      -5.3163      0.29549
     13      -1.2317      0.00000
     14      -0.6149      0.00000
     15       1.1959      0.00000
     16       1.5942      0.00000

 k-point    72 :      -0.0769    0.3846    0.0000
  band No.  band energies     occupation 
      1     -59.5047      2.00000
      2     -59.5034      2.00000
      3     -59.4019      2.00000
      4     -14.9551      2.00000
      5      -8.7114      2.00000
      6      -8.6314      2.00000
      7      -8.3473      2.00000
      8      -8.2194      2.00000
      9      -8.2130      2.00000
     10      -7.1430      2.00000
     11      -5.8510      2.00000
     12      -5.3709      1.86074
     13      -1.6551      0.00000
     14      -0.6020      0.00000
     15       0.9477      0.00000
     16       1.5896      0.00000

 k-point    73 :       0.0000    0.4615    0.0000
  band No.  band energies     occupation 
      1     -59.5047      2.00000
      2     -59.5034      2.00000
      3     -59.4019      2.00000
      4     -14.9494      2.00000
      5      -8.6515      2.00000
      6      -8.6466      2.00000
      7      -8.3525      2.00000
      8      -8.2487      2.00000
      9      -8.2178      2.00000
     10      -7.2215      2.00000
     11      -5.7882      2.00000
     12      -5.3512      1.37931
     13      -1.8131      0.00000
     14      -0.6542      0.00000
     15       1.1648      0.00000
     16       1.6633      0.00000

 k-point    74 :       0.0769    0.4615    0.0000
  band No.  band energies     occupation 
      1     -59.5047      2.00000
      2     -59.5034      2.00000
      3     -59.4019      2.00000
      4     -14.9550      2.00000
      5      -8.7110      2.00000
      6      -8.6318      2.00000
      7      -8.3473      2.00000
      8      -8.2193      2.00000
      9      -8.2130      2.00000
     10      -7.1431      2.00000
     11      -5.8509      2.00000
     12      -5.3709      1.86021
     13      -1.6552      0.00000
     14      -0.6021      0.00000
     15       0.9477      0.00000
     16       1.5912      0.00000

 k-point    75 :       0.1538    0.4615    0.0000
  band No.  band energies     occupation 
      1     -59.5047      2.00000
      2     -59.5034      2.00000
      3     -59.4019      2.00000
      4     -14.9591      2.00000
      5      -8.7556      2.00000
      6      -8.6208      2.00000
      7      -8.3414      2.00000
      8      -8.2229      2.00000
      9      -8.1776      2.00000
     10      -7.0282      2.00000
     11      -6.0195      2.00000
     12      -5.3852      2.02649
     13      -1.2885      0.00000
     14      -0.5324      0.00000
     15       0.7453      0.00000
     16       1.4438      0.00000

 k-point    76 :       0.2308    0.4615    0.0000
  band No.  band energies     occupation 
      1     -59.5047      2.00000
      2     -59.5034      2.00000
      3     -59.4019      2.00000
      4     -14.9604      2.00000
      5      -8.7716      2.00000
      6      -8.6170      2.00000
      7      -8.3391      2.00000
      8      -8.2245      2.00000
      9      -8.1635      2.00000
     10      -6.9626      2.00000
     11      -6.1163      2.00000
     12      -5.3902      2.05231
     13      -1.0582      0.00000
     14      -0.4996      0.00000
     15       0.6101      0.00000
     16       1.2639      0.00000

 k-point    77 :       0.3077    0.4615    0.0000
  band No.  band energies     occupation 
      1     -59.5047      2.00000
      2     -59.5034      2.00000
      3     -59.4019      2.00000
      4     -14.9587      2.00000
      5      -8.7562      2.00000
      6      -8.6201      2.00000
      7      -8.3426      2.00000
      8      -8.2221      2.00000
      9      -8.1776      2.00000
     10      -7.0299      2.00000
     11      -6.0200      2.00000
     12      -5.3842      2.01924
     13      -1.2859      0.00000
     14      -0.5342      0.00000
     15       0.7462      0.00000
     16       1.4381      0.00000

 k-point    78 :       0.3846    0.4615    0.0000
  band No.  band energies     occupation 
      1     -59.5047      2.00000
      2     -59.5034      2.00000
      3     -59.4019      2.00000
      4     -14.9544      2.00000
      5      -8.7123      2.00000
      6      -8.6304      2.00000
      7      -8.3492      2.00000
      8      -8.2180      2.00000
      9      -8.2131      2.00000
     10      -7.1455      2.00000
     11      -5.8525      2.00000
     12      -5.3690      1.82697
     13      -1.6507      0.00000
     14      -0.6052      0.00000
     15       0.9484      0.00000
     16       1.5899      0.00000

 k-point    79 :       0.4615    0.4615    0.0000
  band No.  band energies     occupation 
      1     -59.5047      2.00000
      2     -59.5034      2.00000
      3     -59.4019      2.00000
      4     -14.9487      2.00000
      5      -8.6524      2.00000
      6      -8.6457      2.00000
      7      -8.3547      2.00000
      8      -8.2488      2.00000
      9      -8.2163      2.00000
     10      -7.2242      2.00000
     11      -5.7903      2.00000
     12      -5.3490      1.30780
     13      -1.8079      0.00000
     14      -0.6579      0.00000
     15       1.1652      0.00000
     16       1.6636      0.00000

 k-point    80 :      -0.4615    0.4615    0.0000
  band No.  band energies     occupation 
      1     -59.5048      2.00000
      2     -59.5034      2.00000
      3     -59.4019      2.00000
      4     -14.9429      2.00000
      5      -8.6705      2.00000
      6      -8.5935      2.00000
      7      -8.3563      2.00000
      8      -8.2545      2.00000
      9      -8.2186      2.00000
     10      -7.2418      2.00000
     11      -5.9116      2.00000
     12      -5.3294      0.66054
     13      -1.6404      0.00000
     14      -0.6606      0.00000
     15       1.3342      0.00000
     16       1.5469      0.00000

 k-point    81 :      -0.3846    0.4615    0.0000
  band No.  band energies     occupation 
      1     -59.5047      2.00000
      2     -59.5034      2.00000
      3     -59.4019      2.00000
      4     -14.9384      2.00000
      5      -8.6924      2.00000
      6      -8.5645      2.00000
      7      -8.3545      2.00000
      8      -8.2239      2.00000
      9      -8.2207      2.00000
     10      -7.1970      2.00000
     11      -6.1516      2.00000
     12      -5.3147      0.26011
     13      -1.2289      0.00000
     14      -0.6177      0.00000
     15       1.1973      0.00000
     16       1.5956      0.00000

 k-point    82 :      -0.3077    0.4615    0.0000
  band No.  band energies     occupation 
      1     -59.5047      2.00000
      2     -59.5034      2.00000
      3     -59.4019      2.00000
      4     -14.9360      2.00000
      5      -8.7061      2.00000
      6      -8.5563      2.00000
      7      -8.3517      2.00000
      8      -8.2285      2.00000
      9      -8.1848      2.00000
     10      -7.1220      2.00000
     11      -6.3608      2.00000
     12      -5.3072      0.11798
     13      -0.8190      0.00000
     14      -0.5698      0.00000
     15       1.0101      0.00000
     16       1.4355      0.00000

 k-point    83 :      -0.2308    0.4615    0.0000
  band No.  band energies     occupation 
      1     -59.5047      2.00000
      2     -59.5033      2.00000
      3     -59.4019      2.00000
      4     -14.9362      2.00000
      5      -8.7066      2.00000
      6      -8.5556      2.00000
      7      -8.3511      2.00000
      8      -8.2289      2.00000
      9      -8.1849      2.00000
     10      -7.1211      2.00000
     11      -6.3607      2.00000
     12      -5.3078      0.12695
     13      -0.8199      0.00000
     14      -0.5687      0.00000
     15       1.0091      0.00000
     16       1.4350      0.00000

 k-point    84 :      -0.1538    0.4615    0.0000
  band No.  band energies     occupation 
      1     -59.5047      2.00000
      2     -59.5034      2.00000
      3     -59.4019      2.00000
      4     -14.9389      2.00000
      5      -8.6937      2.00000
      6      -8.5626      2.00000
      7      -8.3529      2.00000
      8      -8.2250      2.00000
      9      -8.2210      2.00000
     10      -7.1950      2.00000
     11      -6.1509      2.00000
     12      -5.3162      0.29475
     13      -1.2318      0.00000
     14      -0.6150      0.00000
     15       1.1960      0.00000
     16       1.5940      0.00000

 k-point    85 :      -0.0769    0.4615    0.0000
  band No.  band energies     occupation 
      1     -59.5047      2.00000
      2     -59.5034      2.00000
      3     -59.4019      2.00000
      4     -14.9436      2.00000
      5      -8.6724      2.00000
      6      -8.5913      2.00000
      7      -8.3543      2.00000
      8      -8.2547      2.00000
      9      -8.2200      2.00000
     10      -7.2393      2.00000
     11      -5.9099      2.00000
     12      -5.3316      0.72943
     13      -1.6450      0.00000
     14      -0.6570      0.00000
     15       1.3336      0.00000
     16       1.5458      0.00000


--------------------------------------------------------------------------------------------------------


 soft charge-density along one line, spin component           1
         0         1         2         3         4         5         6         7         8         9
 total charge-density along one line
 
 pseudopotential strength for first ion, spin component:           1
  7.757 -22.929   0.000  -0.000   0.000  -0.000   0.000  -0.000
-22.929  72.758  -0.000   0.001  -0.000   0.000  -0.000   0.000
  0.000  -0.000 -44.189   0.000  -0.000  16.357  -0.000   0.000
 -0.000   0.001   0.000 -44.170   0.000  -0.000  16.326  -0.000
  0.000  -0.000  -0.000   0.000 -44.190   0.000  -0.000  16.357
 -0.000   0.000  16.357  -0.000   0.000  15.455   0.000  -0.000
  0.000  -0.000  -0.000  16.326  -0.000   0.000  15.456   0.000
 -0.000   0.000   0.000  -0.000  16.357  -0.000   0.000  15.455
  0.000  -0.000  -0.000  -0.000  -0.007   0.000  -0.000   0.002
 -0.000   0.000   0.000  -0.000  -0.000  -0.000   0.000  -0.000
 -0.012   0.025   0.000   0.001   0.000  -0.000  -0.000  -0.000
 -0.000   0.000  -0.000  -0.000   0.000  -0.000   0.000  -0.000
  0.000  -0.000  -0.006   0.000  -0.000   0.002   0.000   0.000
  0.000  -0.000  -0.000  -0.000  -0.007   0.000  -0.000   0.002
 -0.000   0.000   0.000  -0.000  -0.000  -0.000   0.000  -0.000
 -0.012   0.025   0.000   0.000   0.000  -0.000  -0.000  -0.000
 -0.000   0.000  -0.000  -0.000   0.000  -0.000   0.000  -0.000
  0.000  -0.000  -0.006   0.000  -0.000   0.002   0.000   0.000
 total augmentation occupancy for first ion, spin component:           1
  0.944   0.007   0.000  -0.000   0.000  -0.000   0.000  -0.000  -0.001   0.000   0.785   0.000  -0.006   0.001  -0.000  -0.636
  0.007   0.000  -0.000   0.000  -0.000  -0.000   0.000  -0.000  -0.000   0.000   0.009   0.000  -0.000   0.000  -0.000  -0.006
  0.000  -0.000   2.001  -0.000   0.000  -0.009  -0.000  -0.000   0.000  -0.000  -0.000   0.000  -0.018  -0.000   0.000   0.000
 -0.000   0.000  -0.000   2.000  -0.000  -0.000  -0.006  -0.000   0.000   0.000  -0.000   0.000  -0.000  -0.000  -0.000   0.000
  0.000  -0.000   0.000  -0.000   2.001  -0.000  -0.000  -0.009  -0.018   0.000  -0.000  -0.000   0.000   0.017  -0.000   0.000
 -0.000  -0.000  -0.009  -0.000  -0.000   0.023  -0.000   0.000   0.000  -0.001  -0.000   0.000   0.125  -0.000   0.001   0.000
  0.000   0.000  -0.000  -0.006  -0.000  -0.000   0.005  -0.000   0.000   0.000  -0.000   0.000  -0.000   0.000  -0.000  -0.000
 -0.000  -0.000  -0.000  -0.000  -0.009   0.000  -0.000   0.024   0.126   0.000  -0.000  -0.001   0.000  -0.115  -0.000   0.000
 -0.001  -0.000   0.000   0.000  -0.018   0.000   0.000   0.126   3.089  -0.000  -0.000  -0.003   0.000  -1.034   0.000   0.000
  0.000   0.000  -0.000   0.000   0.000  -0.001   0.000   0.000  -0.000   2.645  -0.000  -0.000  -0.003   0.000  -0.437  -0.000
  0.785   0.009  -0.000  -0.000  -0.000  -0.000  -0.000  -0.000  -0.000  -0.000   2.985  -0.000  -0.003   0.000  -0.000  -0.742
  0.000   0.000   0.000   0.000  -0.000   0.000   0.000  -0.001  -0.003  -0.000  -0.000   2.642  -0.000   0.003   0.000   0.000
 -0.006  -0.000  -0.018  -0.000   0.000   0.125  -0.000   0.000   0.000  -0.003  -0.003  -0.000   3.085  -0.000   0.003   0.004
  0.001   0.000  -0.000  -0.000   0.017  -0.000   0.000  -0.115  -1.034   0.000   0.000   0.003  -0.000   0.922   0.000  -0.001
 -0.000  -0.000   0.000  -0.000  -0.000   0.001  -0.000  -0.000   0.000  -0.437  -0.000   0.000   0.003   0.000   0.222   0.000
 -0.636  -0.006   0.000   0.000   0.000   0.000  -0.000   0.000   0.000  -0.000  -0.742   0.000   0.004  -0.001   0.000   0.503
  0.000  -0.000  -0.000  -0.000   0.000  -0.000  -0.000   0.001   0.003   0.000   0.000  -0.436   0.000  -0.003   0.000  -0.000
  0.006   0.000   0.017   0.000  -0.000  -0.114   0.000  -0.000  -0.000   0.003   0.004   0.000  -1.031   0.000  -0.003  -0.005


------------------------ aborting loop because EDIFF is reached ----------------------------------------


 


 total charge     
 
# of ion     s       p       d       tot
----------------------------------------
  1        0.228   6.016   8.780  15.025
  2        1.376   1.874   0.015   3.265
------------------------------------------------
tot        1.604   7.890   8.795  18.290
 
    CHARGE:  cpu time    0.2684: real time    0.2690
    FORLOC:  cpu time    0.0059: real time    0.0059
    FORNL :  cpu time    1.1669: real time    1.1697
    STRESS:  cpu time    3.5081: real time    3.5166
    FORCOR:  cpu time    0.1100: real time    0.1125
    FORHAR:  cpu time    0.0318: real time    0.0319
    MIXING:  cpu time    0.0060: real time    0.0060
    OFIELD:  cpu time    0.0001: real time    0.0001

  FORCE on cell =-STRESS in cart. coord.  units (eV):
  Direction    XX          YY          ZZ          XY          YZ          ZX
  --------------------------------------------------------------------------------------
  Alpha Z     1.90658     1.90658     1.90658
  Ewald   11157.71497 11155.40315-12362.97324     0.13349    -0.00359    -0.00042
  Hartree 11962.45237 11961.38445-11060.09291     0.06160    -0.00129    -0.00016
  E(xc)    -124.66021  -124.66333  -125.44311     0.00019    -0.00000     0.00000
  Local  -23532.69691-23529.39445 23002.20808    -0.19048     0.00483     0.00060
  n-local    58.74844    58.73997    60.51821    -0.00098     0.00197    -0.00082
  augment   110.49794   110.51298   111.13776    -0.00097     0.00006    -0.00003
  Kinetic   362.34989   362.41928   372.65817    -0.00400     0.00007     0.00000
  Fock        0.00000     0.00000     0.00000     0.00000     0.00000     0.00000
  -------------------------------------------------------------------------------------
  Total      -3.68693    -3.69136    -0.08047    -0.00115     0.00205    -0.00083
  in kB      -3.98534    -3.99013    -0.08698    -0.00125     0.00221    -0.00089
  external pressure =       -2.69 kB  Pullay stress =        0.00 kB


 VOLUME and BASIS-vectors are now :
 -----------------------------------------------------------------------------
  energy-cutoff  :      520.00
  volume of cell :     1482.21
      direct lattice vectors                 reciprocal lattice vectors
     5.024974918  0.000000000  0.000000000     0.199005968 -0.114896149  0.000000000
     2.512487459  4.351755932  0.000000000     0.000000000  0.229792299  0.000000000
     0.000000000  0.000000000 67.781557949     0.000000000  0.000000000  0.014753276

  length of vectors
     5.024974918  5.024974918 67.781557949     0.229792299  0.229792299  0.014753276


 FORCES acting on ions
    electron-ion (+dipol)            ewald-force                    non-local-force                 convergence-correction
 -----------------------------------------------------------------------------------------------
   -.569E-01 -.490E+00 0.204E+01   0.534E-01 0.458E+00 -.200E+01   0.536E-02 0.377E-01 -.331E-01   -.203E-03 -.166E-03 0.385E-04
   0.518E-01 0.445E+00 -.196E+01   -.534E-01 -.458E+00 0.200E+01   -.578E-03 0.926E-02 -.467E-01   0.266E-04 0.141E-04 -.138E-04
 -----------------------------------------------------------------------------------------------
   -.508E-02 -.447E-01 0.761E-01   -.144E-13 0.117E-13 0.000E+00   0.478E-02 0.470E-01 -.797E-01   -.176E-03 -.152E-03 0.248E-04
 
 
 POSITION                                       TOTAL-FORCE (eV/Angst)
 -----------------------------------------------------------------------------------
      5.86141      1.46964     16.77924         0.001916      0.005197      0.008669
      3.34932      0.02248     16.78707        -0.001916     -0.005197     -0.008669
 -----------------------------------------------------------------------------------
    total drift:                               -0.000480      0.002064     -0.003626


--------------------------------------------------------------------------------------------------------



  FREE ENERGIE OF THE ION-ELECTRON SYSTEM (eV)
  ---------------------------------------------------
  free  energy   TOTEN  =        -4.79324043 eV

  energy  without entropy=       -4.79278290  energy(sigma->0) =       -4.79308792
 


--------------------------------------------------------------------------------------------------------


    POTLOK:  cpu time    0.1099: real time    0.1102


--------------------------------------------------------------------------------------------------------


 writing wavefunctions
     LOOP+:  cpu time  104.6381: real time  108.3557
    4ORBIT:  cpu time    0.0000: real time    0.0000
 


 total charge     
 
# of ion     s       p       d       tot
----------------------------------------
  1        0.228   6.016   8.780  15.025
  2        1.376   1.874   0.015   3.265
------------------------------------------------
tot        1.604   7.890   8.795  18.290
 

 total amount of memory used by VASP on root node    69677. kBytes
========================================================================

   base      :      30000. kBytes
   nonlr-proj:        307. kBytes
   fftplans  :       6611. kBytes
   grid      :      10658. kBytes
   one-center:         15. kBytes
   wavefun   :      22086. kBytes
 
  
  
 General timing and accounting informations for this job:
 ========================================================
  
                  Total CPU time used (sec):      119.168
                            User time (sec):      112.440
                          System time (sec):        6.728
                         Elapsed time (sec):      123.063
  
                   Maximum memory used (kb):      135428.
                   Average memory used (kb):           0.
  
                          Minor page faults:        62549
                          Major page faults:            0
                 Voluntary context switches:         6122
