 running on   24 total cores
 distrk:  each k-point on   24 cores,    1 groups
 distr:  one band on   12 cores,    2 groups
 using from now: INCAR     
 vasp.5.4.1 24Jun15 (build May 17 2017 14:36:12) complex                        
  
 POSCAR found type information on POSCAR  Te
 POSCAR found :  1 types and       2 ions
 scaLAPACK will be used

 ----------------------------------------------------------------------------- 
|                                                                             |
|           W    W    AA    RRRRR   N    N  II  N    N   GGGG   !!!           |
|           W    W   A  A   R    R  NN   N  II  NN   N  G    G  !!!           |
|           W    W  A    A  R    R  N N  N  II  N N  N  G       !!!           |
|           W WW W  AAAAAA  RRRRR   N  N N  II  N  N N  G  GGG   !            |
|           WW  WW  A    A  R   R   N   NN  II  N   NN  G    G                |
|           W    W  A    A  R    R  N    N  II  N    N   GGGG   !!!           |
|                                                                             |
|      For optimal performance we recommend to set                            |
|        NCORE= 4 - approx SQRT( number of cores)                             |
|      NCORE specifies how many cores store one orbital (NPAR=cpu/NCORE).     |
|      This setting can  greatly improve the performance of VASP for DFT.     |
|      The default, NPAR=number of cores might be grossly inefficient         |
|      on modern multi-core architectures or massively parallel machines.     |
|      Do your own testing !!!!                                               |
|      Unfortunately you need to use the default for GW and RPA calculations. |
|      (for HF NCORE is supported but not extensively tested yet)             |
|                                                                             |
 ----------------------------------------------------------------------------- 


 ----------------------------------------------------------------------------- 
|                                                                             |
|  ADVICE TO THIS USER RUNNING 'VASP/VAMP'   (HEAR YOUR MASTER'S VOICE ...):  |
|                                                                             |
|      You have a (more or less) 'small supercell' and for smaller cells      |
|      it is recommended  to use the reciprocal-space projection scheme!      |
|      The real space optimization is not  efficient for small cells and it   |
|      is also less accurate ...                                              |
|      Therefore set LREAL=.FALSE. in the  INCAR file                         |
|                                                                             |
 ----------------------------------------------------------------------------- 

 LDA part: xc-table for Pade appr. of Perdew

 ----------------------------------------------------------------------------- 
|                                                                             |
|           W    W    AA    RRRRR   N    N  II  N    N   GGGG   !!!           |
|           W    W   A  A   R    R  NN   N  II  NN   N  G    G  !!!           |
|           W    W  A    A  R    R  N N  N  II  N N  N  G       !!!           |
|           W WW W  AAAAAA  RRRRR   N  N N  II  N  N N  G  GGG   !            |
|           WW  WW  A    A  R   R   N   NN  II  N   NN  G    G                |
|           W    W  A    A  R    R  N    N  II  N    N   GGGG   !!!           |
|                                                                             |
|      One of the lattice vectors is very long (>50 A), but AMIN is rather    |
|      large. This can spoil convergence since charge sloshing might occur    |
|      along the long lattice vector. If problems with convergence are        |
|      observed, try to decrease AMIN to a smaller values (e.g. 0.01).        |
|      Note: this warning only applies if the selfconsistency cycle is used.  |
|                                                                             |
 ----------------------------------------------------------------------------- 

 POSCAR, INCAR and KPOINTS ok, starting setup
 WARNING: small aliasing (wrap around) errors must be expected
 FFT: planning ...
 WAVECAR not read
 charge-density read from file: unknown                                 
 entering main loop
       N       E                     dE             d eps       ncg     rms          rms(c)
DAV:   1     0.877631859780E+02    0.87763E+02   -0.23119E+03  2064   0.625E+02
DAV:   2     0.948892673848E+01   -0.78274E+02   -0.68423E+02  3046   0.737E+01
DAV:   3    -0.527695358742E+01   -0.14766E+02   -0.14255E+02  3186   0.532E+01
DAV:   4    -0.570295804721E+01   -0.42600E+00   -0.42497E+00  2574   0.106E+01
DAV:   5    -0.570835894049E+01   -0.54009E-02   -0.53994E-02  2510   0.161E+00    0.973E-02
RMM:   6    -0.570814701195E+01    0.21193E-03   -0.15589E-03  2088   0.262E-01    0.350E-02
RMM:   7    -0.570811865957E+01    0.28352E-04   -0.38390E-04  2529   0.114E-01    0.220E-02
RMM:   8    -0.570811372297E+01    0.49366E-05   -0.12606E-05  1711   0.297E-02
   1 F= -.57081137E+01 E0= -.57078575E+01  d E =-.512383E-03
