   2   2   1   0
  0.2044415E+02  0.3866975E-09  0.3866975E-09  0.3866975E-09  0.5000000E-15
  1.000000000000000E-004
  CAR 
 unknown system                          
     50.81151746     -8.59070258  301      5.71533208      1.00000000
     -8.591  0.0000E+00  0.0000E+00  0.0000E+00  0.0000E+00
     -8.393  0.0000E+00  0.0000E+00  0.0000E+00  0.0000E+00
     -8.195  0.0000E+00  0.0000E+00  0.0000E+00  0.0000E+00
     -7.997  0.0000E+00  0.0000E+00  0.0000E+00  0.0000E+00
     -7.799  0.0000E+00  0.0000E+00  0.0000E+00  0.0000E+00
     -7.601  0.0000E+00  0.0000E+00  0.0000E+00  0.0000E+00
     -7.403  0.0000E+00  0.0000E+00  0.0000E+00  0.0000E+00
     -7.205  0.0000E+00  0.0000E+00  0.0000E+00  0.0000E+00
     -7.007  0.0000E+00  0.0000E+00  0.0000E+00  0.0000E+00
     -6.809  0.0000E+00  0.0000E+00  0.0000E+00  0.0000E+00
     -6.611  0.0000E+00  0.0000E+00  0.0000E+00  0.0000E+00
     -6.413  0.0000E+00  0.0000E+00  0.0000E+00  0.0000E+00
     -6.215  0.0000E+00  0.0000E+00  0.0000E+00  0.0000E+00
     -6.017  0.0000E+00  0.0000E+00  0.0000E+00  0.0000E+00
     -5.819  0.5535E-03  0.5535E-03  0.7447E-04  0.7448E-04
     -5.621  0.9425E-03  0.9425E-03  0.2212E-03  0.2213E-03
     -5.423  0.1412E-02  0.1412E-02  0.4530E-03  0.4530E-03
     -5.225  0.1567E-02  0.1567E-02  0.7503E-03  0.7503E-03
     -5.027  0.1773E-02  0.1773E-02  0.1082E-02  0.1082E-02
     -4.829  0.1948E-02  0.1948E-02  0.1450E-02  0.1450E-02
     -4.631  0.2234E-02  0.2234E-02  0.1863E-02  0.1863E-02
     -4.433  0.2602E-02  0.2602E-02  0.2340E-02  0.2340E-02
     -4.235  0.3013E-02  0.3013E-02  0.2899E-02  0.2899E-02
     -4.037  0.3381E-02  0.3381E-02  0.3534E-02  0.3534E-02
     -3.839  0.3946E-02  0.3946E-02  0.4236E-02  0.4236E-02
     -3.641  0.4139E-02  0.4139E-02  0.5229E-02  0.5229E-02
     -3.443  0.4003E-02  0.4003E-02  0.6038E-02  0.6038E-02
     -3.245  0.3710E-02  0.3710E-02  0.6804E-02  0.6804E-02
     -3.046  0.3709E-02  0.3709E-02  0.7518E-02  0.7518E-02
     -2.848  0.3911E-02  0.3911E-02  0.8278E-02  0.8278E-02
     -2.650  0.5819E-02  0.5819E-02  0.9436E-02  0.9436E-02
     -2.452  0.0000E+00  0.0000E+00  0.1000E-01  0.1000E-01
     -2.254  0.0000E+00  0.0000E+00  0.1000E-01  0.1000E-01
     -2.056  0.0000E+00  0.0000E+00  0.1000E-01  0.1000E-01
     -1.858  0.0000E+00  0.0000E+00  0.1000E-01  0.1000E-01
     -1.660  0.0000E+00  0.0000E+00  0.1000E-01  0.1000E-01
     -1.462  0.0000E+00  0.0000E+00  0.1000E-01  0.1000E-01
     -1.264  0.0000E+00  0.0000E+00  0.1000E-01  0.1000E-01
     -1.066  0.0000E+00  0.0000E+00  0.1000E-01  0.1000E-01
     -0.868  0.7388E-02  0.7388E-02  0.1181E-01  0.1181E-01
     -0.670  0.5155E-02  0.5155E-02  0.1310E-01  0.1310E-01
     -0.472  0.4565E-02  0.4565E-02  0.1406E-01  0.1406E-01
     -0.274  0.3894E-02  0.3894E-02  0.1490E-01  0.1490E-01
     -0.076  0.3141E-02  0.3141E-02  0.1560E-01  0.1560E-01
      0.122  0.2419E-02  0.2419E-02  0.1614E-01  0.1614E-01
      0.320  0.2182E-02  0.2182E-02  0.1660E-01  0.1660E-01
      0.518  0.1961E-02  0.1961E-02  0.1701E-01  0.1701E-01
      0.716  0.1759E-02  0.1759E-02  0.1737E-01  0.1737E-01
      0.914  0.1573E-02  0.1573E-02  0.1770E-01  0.1770E-01
      1.112  0.1368E-02  0.1368E-02  0.1800E-01  0.1800E-01
      1.310  0.1165E-02  0.1165E-02  0.1825E-01  0.1825E-01
      1.508  0.1067E-02  0.1067E-02  0.1847E-01  0.1847E-01
      1.706  0.9726E-03  0.9726E-03  0.1867E-01  0.1867E-01
      1.904  0.5759E-02  0.5757E-02  0.1971E-01  0.1971E-01
      2.102  0.5757E-02  0.5757E-02  0.2084E-01  0.2084E-01
      2.300  0.5666E-02  0.5665E-02  0.2197E-01  0.2197E-01
      2.498  0.4882E-02  0.4882E-02  0.2317E-01  0.2317E-01
      2.696  0.4374E-02  0.4374E-02  0.2408E-01  0.2408E-01
      2.894  0.4051E-02  0.4051E-02  0.2491E-01  0.2491E-01
      3.092  0.8153E-02  0.8153E-02  0.2650E-01  0.2650E-01
      3.290  0.7485E-02  0.7485E-02  0.2823E-01  0.2823E-01
      3.488  0.7559E-02  0.7559E-02  0.2972E-01  0.2972E-01
      3.686  0.7429E-02  0.7429E-02  0.3125E-01  0.3125E-01
      3.884  0.6819E-02  0.6819E-02  0.3264E-01  0.3264E-01
      4.082  0.7552E-02  0.7552E-02  0.3417E-01  0.3417E-01
      4.280  0.6507E-02  0.6506E-02  0.3557E-01  0.3557E-01
      4.478  0.5159E-02  0.5159E-02  0.3679E-01  0.3679E-01
      4.676  0.4175E-02  0.4175E-02  0.3771E-01  0.3771E-01
      4.874  0.4017E-02  0.4017E-02  0.3859E-01  0.3859E-01
      5.072  0.2548E-02  0.2548E-02  0.3926E-01  0.3926E-01
      5.270  0.1301E-02  0.1301E-02  0.3960E-01  0.3960E-01
      5.468  0.8125E-03  0.8124E-03  0.3981E-01  0.3981E-01
      5.666  0.0000E+00  0.0000E+00  0.4000E-01  0.4000E-01
      5.864  0.0000E+00  0.0000E+00  0.4000E-01  0.4000E-01
      6.062  0.0000E+00  0.0000E+00  0.4000E-01  0.4000E-01
      6.260  0.0000E+00  0.0000E+00  0.4000E-01  0.4000E-01
      6.458  0.0000E+00  0.0000E+00  0.4000E-01  0.4000E-01
      6.656  0.0000E+00  0.0000E+00  0.4000E-01  0.4000E-01
      6.854  0.8904E-03  0.8905E-03  0.4015E-01  0.4015E-01
      7.052  0.1289E-02  0.1289E-02  0.4037E-01  0.4037E-01
      7.250  0.1761E-02  0.1761E-02  0.4067E-01  0.4067E-01
      7.448  0.2060E-02  0.2060E-02  0.4103E-01  0.4103E-01
      7.646  0.2707E-02  0.2707E-02  0.4150E-01  0.4150E-01
      7.844  0.4698E-02  0.4699E-02  0.4218E-01  0.4218E-01
      8.042  0.8389E-02  0.8389E-02  0.4362E-01  0.4362E-01
      8.240  0.1208E-01  0.1208E-01  0.4580E-01  0.4580E-01
      8.438  0.1032E-01  0.1032E-01  0.4831E-01  0.4831E-01
      8.636  0.6672E-02  0.6672E-02  0.5000E-01  0.5000E-01
      8.834  0.1448E-02  0.1448E-02  0.5096E-01  0.5096E-01
      9.032  0.2884E-02  0.2884E-02  0.5145E-01  0.5145E-01
      9.230  0.4500E-02  0.4500E-02  0.5217E-01  0.5217E-01
      9.428  0.9489E-02  0.9491E-02  0.5331E-01  0.5331E-01
      9.626  0.1261E-01  0.1261E-01  0.5619E-01  0.5619E-01
      9.824  0.5748E-02  0.5749E-02  0.5765E-01  0.5765E-01
     10.022  0.6510E-02  0.6510E-02  0.5888E-01  0.5888E-01
     10.220  0.6529E-02  0.6529E-02  0.6021E-01  0.6021E-01
     10.418  0.5822E-02  0.5822E-02  0.6163E-01  0.6163E-01
     10.616  0.4911E-02  0.4911E-02  0.6264E-01  0.6264E-01
     10.814  0.5398E-02  0.5398E-02  0.6406E-01  0.6406E-01
     11.012  0.6187E-02  0.6188E-02  0.6513E-01  0.6513E-01
     11.210  0.8901E-02  0.8901E-02  0.6665E-01  0.6665E-01
     11.408  0.4703E-02  0.4702E-02  0.6854E-01  0.6854E-01
     11.606  0.3188E-02  0.3188E-02  0.6922E-01  0.6922E-01
     11.804  0.3000E-02  0.3000E-02  0.6983E-01  0.6983E-01
     12.002  0.4694E-02  0.4694E-02  0.7054E-01  0.7054E-01
     12.200  0.5925E-02  0.5925E-02  0.7161E-01  0.7161E-01
     12.398  0.4605E-02  0.4605E-02  0.7259E-01  0.7259E-01
     12.596  0.5185E-02  0.5185E-02  0.7356E-01  0.7356E-01
     12.794  0.5669E-02  0.5669E-02  0.7464E-01  0.7464E-01
     12.992  0.6216E-02  0.6217E-02  0.7580E-01  0.7580E-01
     13.190  0.8078E-02  0.8078E-02  0.7722E-01  0.7722E-01
     13.388  0.8242E-02  0.8242E-02  0.7894E-01  0.7894E-01
     13.586  0.4439E-02  0.4439E-02  0.8038E-01  0.8038E-01
     13.784  0.3833E-02  0.3833E-02  0.8119E-01  0.8119E-01
     13.982  0.4020E-02  0.4020E-02  0.8193E-01  0.8193E-01
     14.180  0.5550E-02  0.5550E-02  0.8289E-01  0.8289E-01
     14.378  0.6721E-02  0.6721E-02  0.8437E-01  0.8437E-01
     14.576  0.7138E-02  0.7138E-02  0.8594E-01  0.8594E-01
     14.774  0.8015E-02  0.8015E-02  0.8748E-01  0.8748E-01
     14.972  0.1076E-01  0.1076E-01  0.8919E-01  0.8919E-01
     15.170  0.5405E-02  0.5405E-02  0.9033E-01  0.9033E-01
     15.368  0.5694E-02  0.5694E-02  0.9143E-01  0.9143E-01
     15.566  0.6060E-02  0.6060E-02  0.9259E-01  0.9259E-01
     15.764  0.8559E-02  0.8558E-02  0.9391E-01  0.9391E-01
     15.962  0.7594E-02  0.7594E-02  0.9545E-01  0.9545E-01
     16.160  0.6462E-02  0.6462E-02  0.9704E-01  0.9704E-01
     16.358  0.6314E-02  0.6314E-02  0.9830E-01  0.9830E-01
     16.556  0.5484E-02  0.5484E-02  0.9951E-01  0.9951E-01
     16.754  0.5382E-02  0.5382E-02  0.1006E+00  0.1006E+00
     16.952  0.5637E-02  0.5637E-02  0.1020E+00  0.1020E+00
     17.150  0.2502E-02  0.2503E-02  0.1031E+00  0.1031E+00
     17.348  0.2779E-02  0.2779E-02  0.1036E+00  0.1036E+00
     17.546  0.3070E-02  0.3070E-02  0.1042E+00  0.1042E+00
     17.744  0.5221E-02  0.5221E-02  0.1051E+00  0.1051E+00
     17.942  0.7703E-02  0.7704E-02  0.1064E+00  0.1064E+00
     18.140  0.1119E-01  0.1119E-01  0.1082E+00  0.1083E+00
     18.338  0.8645E-02  0.8645E-02  0.1114E+00  0.1114E+00
     18.536  0.4397E-02  0.4397E-02  0.1128E+00  0.1128E+00
     18.734  0.4861E-02  0.4861E-02  0.1137E+00  0.1137E+00
     18.932  0.5726E-02  0.5726E-02  0.1147E+00  0.1147E+00
     19.130  0.7952E-02  0.7952E-02  0.1165E+00  0.1165E+00
     19.328  0.6614E-02  0.6614E-02  0.1178E+00  0.1178E+00
     19.526  0.7033E-02  0.7033E-02  0.1192E+00  0.1192E+00
     19.724  0.7488E-02  0.7488E-02  0.1206E+00  0.1206E+00
     19.922  0.7964E-02  0.7964E-02  0.1222E+00  0.1222E+00
     20.120  0.7398E-02  0.7397E-02  0.1237E+00  0.1237E+00
     20.318  0.6079E-02  0.6079E-02  0.1251E+00  0.1251E+00
     20.516  0.7010E-02  0.7010E-02  0.1266E+00  0.1266E+00
     20.714  0.7161E-02  0.7161E-02  0.1280E+00  0.1280E+00
     20.912  0.9670E-02  0.9670E-02  0.1296E+00  0.1296E+00
     21.110  0.1604E-01  0.1604E-01  0.1322E+00  0.1322E+00
     21.308  0.1287E-01  0.1287E-01  0.1350E+00  0.1350E+00
     21.506  0.5290E-02  0.5290E-02  0.1369E+00  0.1369E+00
     21.704  0.4778E-02  0.4778E-02  0.1379E+00  0.1379E+00
     21.902  0.8993E-02  0.8993E-02  0.1388E+00  0.1388E+00
     22.100  0.1623E-02  0.1623E-02  0.1406E+00  0.1406E+00
     22.298  0.2314E-02  0.2314E-02  0.1410E+00  0.1410E+00
     22.496  0.4037E-02  0.4037E-02  0.1415E+00  0.1415E+00
     22.694  0.6065E-02  0.6065E-02  0.1426E+00  0.1426E+00
     22.892  0.6745E-02  0.6745E-02  0.1439E+00  0.1439E+00
     23.090  0.7342E-02  0.7342E-02  0.1453E+00  0.1453E+00
     23.288  0.8588E-02  0.8589E-02  0.1468E+00  0.1468E+00
     23.486  0.8041E-02  0.8041E-02  0.1485E+00  0.1485E+00
     23.685  0.3882E-02  0.3882E-02  0.1498E+00  0.1498E+00
     23.883  0.4080E-02  0.4080E-02  0.1506E+00  0.1506E+00
     24.081  0.4466E-02  0.4466E-02  0.1514E+00  0.1514E+00
     24.279  0.7487E-02  0.7487E-02  0.1530E+00  0.1530E+00
     24.477  0.9936E-02  0.9936E-02  0.1563E+00  0.1563E+00
     24.675  0.9930E-02  0.9930E-02  0.1583E+00  0.1583E+00
     24.873  0.1496E-01  0.1496E-01  0.1616E+00  0.1616E+00
     25.071  0.1219E-01  0.1219E-01  0.1644E+00  0.1644E+00
     25.269  0.8203E-02  0.8203E-02  0.1664E+00  0.1664E+00
     25.467  0.5379E-01  0.5379E-01  0.1679E+00  0.1679E+00
     25.665  0.7366E-02  0.7366E-02  0.1701E+00  0.1701E+00
     25.863  0.5996E-02  0.5996E-02  0.1715E+00  0.1715E+00
     26.061  0.4604E-02  0.4604E-02  0.1725E+00  0.1725E+00
     26.259  0.4196E-02  0.4196E-02  0.1734E+00  0.1734E+00
     26.457  0.3648E-02  0.3648E-02  0.1742E+00  0.1742E+00
     26.655  0.3605E-02  0.3605E-02  0.1749E+00  0.1749E+00
     26.853  0.3522E-02  0.3522E-02  0.1756E+00  0.1756E+00
     27.051  0.7257E-02  0.7259E-02  0.1769E+00  0.1769E+00
     27.249  0.7128E-02  0.7128E-02  0.1788E+00  0.1788E+00
     27.447  0.7357E-02  0.7357E-02  0.1803E+00  0.1803E+00
     27.645  0.1035E-01  0.1034E-01  0.1823E+00  0.1823E+00
     27.843  0.1631E-01  0.1631E-01  0.1849E+00  0.1849E+00
     28.041  0.9073E-02  0.9068E-02  0.1892E+00  0.1892E+00
     28.239  0.8454E-02  0.8454E-02  0.1909E+00  0.1909E+00
     28.437  0.7052E-02  0.7052E-02  0.1926E+00  0.1926E+00
     28.635  0.6166E-02  0.6166E-02  0.1939E+00  0.1939E+00
     28.833  0.3608E-01  0.3606E-01  0.1953E+00  0.1953E+00
     29.031  0.9076E-02  0.9077E-02  0.1975E+00  0.1975E+00
     29.229  0.7046E-02  0.7046E-02  0.1991E+00  0.1991E+00
     29.427  0.5975E-02  0.5975E-02  0.2004E+00  0.2004E+00
     29.625  0.5870E-02  0.5870E-02  0.2017E+00  0.2017E+00
     29.823  0.5304E-02  0.5304E-02  0.2028E+00  0.2028E+00
     30.021  0.4664E-02  0.4664E-02  0.2038E+00  0.2038E+00
     30.219  0.5737E-02  0.5737E-02  0.2049E+00  0.2049E+00
     30.417  0.7115E-02  0.7115E-02  0.2063E+00  0.2063E+00
     30.615  0.8338E-02  0.8338E-02  0.2079E+00  0.2079E+00
     30.813  0.6265E-02  0.6265E-02  0.2096E+00  0.2096E+00
     31.011  0.6294E-02  0.6294E-02  0.2109E+00  0.2109E+00
     31.209  0.7057E-02  0.7057E-02  0.2124E+00  0.2124E+00
     31.407  0.7338E-02  0.7338E-02  0.2138E+00  0.2138E+00
     31.605  0.7952E-02  0.7952E-02  0.2153E+00  0.2153E+00
     31.803  0.9061E-02  0.9061E-02  0.2170E+00  0.2170E+00
     32.001  0.9953E-02  0.9954E-02  0.2189E+00  0.2189E+00
     32.199  0.9798E-02  0.9799E-02  0.2210E+00  0.2210E+00
     32.397  0.1183E-01  0.1183E-01  0.2232E+00  0.2232E+00
     32.595  0.8427E-02  0.8427E-02  0.2254E+00  0.2254E+00
     32.793  0.8507E-02  0.8507E-02  0.2271E+00  0.2271E+00
     32.991  0.8187E-02  0.8187E-02  0.2287E+00  0.2287E+00
     33.189  0.8203E-02  0.8203E-02  0.2303E+00  0.2303E+00
     33.387  0.9143E-02  0.9143E-02  0.2320E+00  0.2320E+00
     33.585  0.1033E-01  0.1033E-01  0.2341E+00  0.2341E+00
     33.783  0.3979E-02  0.3978E-02  0.2356E+00  0.2356E+00
     33.981  0.3441E-02  0.3441E-02  0.2363E+00  0.2363E+00
     34.179  0.8783E-02  0.8783E-02  0.2374E+00  0.2374E+00
     34.377  0.9374E-02  0.9374E-02  0.2397E+00  0.2397E+00
     34.575  0.7367E-02  0.7367E-02  0.2413E+00  0.2413E+00
     34.773  0.6494E-02  0.6494E-02  0.2426E+00  0.2426E+00
     34.971  0.9023E-02  0.9023E-02  0.2441E+00  0.2441E+00
     35.169  0.1068E-01  0.1068E-01  0.2464E+00  0.2464E+00
     35.367  0.1082E-01  0.1082E-01  0.2485E+00  0.2485E+00
     35.565  0.1036E-01  0.1036E-01  0.2507E+00  0.2507E+00
     35.763  0.1253E-01  0.1253E-01  0.2528E+00  0.2528E+00
     35.961  0.8617E-02  0.8617E-02  0.2550E+00  0.2550E+00
     36.159  0.6605E-02  0.6605E-02  0.2564E+00  0.2564E+00
     36.357  0.6672E-02  0.6672E-02  0.2578E+00  0.2578E+00
     36.555  0.8135E-02  0.8135E-02  0.2592E+00  0.2592E+00
     36.753  0.1020E-01  0.1020E-01  0.2610E+00  0.2610E+00
     36.951  0.1231E-01  0.1231E-01  0.2635E+00  0.2635E+00
     37.149  0.1217E-01  0.1217E-01  0.2660E+00  0.2660E+00
     37.347  0.1219E-01  0.1219E-01  0.2684E+00  0.2684E+00
     37.545  0.1341E-01  0.1341E-01  0.2710E+00  0.2710E+00
     37.743  0.7626E-02  0.7626E-02  0.2729E+00  0.2729E+00
     37.941  0.4923E-02  0.4922E-02  0.2742E+00  0.2742E+00
     38.139  0.3899E-02  0.3899E-02  0.2752E+00  0.2752E+00
     38.337  0.7629E-02  0.7629E-02  0.2768E+00  0.2768E+00
     38.535  0.8263E-02  0.8263E-02  0.2783E+00  0.2783E+00
     38.733  0.1162E-01  0.1162E-01  0.2805E+00  0.2805E+00
     38.931  0.1584E-01  0.1584E-01  0.2832E+00  0.2832E+00
     39.129  0.1430E-01  0.1430E-01  0.2864E+00  0.2864E+00
     39.327  0.1430E-01  0.1430E-01  0.2892E+00  0.2892E+00
     39.525  0.1115E-01  0.1115E-01  0.2917E+00  0.2917E+00
     39.723  0.6779E-02  0.6779E-02  0.2935E+00  0.2935E+00
     39.921  0.7032E-02  0.7032E-02  0.2949E+00  0.2949E+00
     40.119  0.6284E-02  0.6284E-02  0.2962E+00  0.2962E+00
     40.317  0.5927E-02  0.5927E-02  0.2974E+00  0.2974E+00
     40.515  0.5518E-02  0.5518E-02  0.2988E+00  0.2988E+00
     40.713  0.7328E-02  0.7328E-02  0.3001E+00  0.3001E+00
     40.911  0.8232E-02  0.8232E-02  0.3018E+00  0.3018E+00
     41.109  0.9390E-02  0.9390E-02  0.3035E+00  0.3035E+00
     41.307  0.8155E-02  0.8155E-02  0.3053E+00  0.3053E+00
     41.505  0.6897E-02  0.6897E-02  0.3068E+00  0.3068E+00
     41.703  0.6498E-02  0.6498E-02  0.3081E+00  0.3081E+00
     41.901  0.5670E-02  0.5670E-02  0.3094E+00  0.3094E+00
     42.099  0.9044E-02  0.9044E-02  0.3107E+00  0.3107E+00
     42.297  0.9647E-02  0.9647E-02  0.3126E+00  0.3126E+00
     42.495  0.9423E-02  0.9423E-02  0.3145E+00  0.3145E+00
     42.693  0.1001E-01  0.1001E-01  0.3163E+00  0.3163E+00
     42.891  0.1005E-01  0.1005E-01  0.3185E+00  0.3185E+00
     43.089  0.6975E-02  0.6975E-02  0.3208E+00  0.3208E+00
     43.287  0.8716E-02  0.8716E-02  0.3223E+00  0.3223E+00
     43.485  0.7572E-02  0.7572E-02  0.3242E+00  0.3242E+00
     43.683  0.7792E-02  0.7792E-02  0.3257E+00  0.3257E+00
     43.881  0.8106E-02  0.8106E-02  0.3275E+00  0.3275E+00
     44.079  0.8318E-02  0.8318E-02  0.3291E+00  0.3291E+00
     44.277  0.8446E-02  0.8446E-02  0.3308E+00  0.3308E+00
     44.475  0.9033E-02  0.9033E-02  0.3325E+00  0.3325E+00
     44.673  0.8611E-02  0.8611E-02  0.3345E+00  0.3345E+00
     44.871  0.1034E-01  0.1034E-01  0.3364E+00  0.3364E+00
     45.069  0.1363E-01  0.1363E-01  0.3392E+00  0.3392E+00
     45.267  0.1025E-01  0.1025E-01  0.3414E+00  0.3414E+00
     45.465  0.9851E-02  0.9850E-02  0.3434E+00  0.3434E+00
     45.663  0.8689E-02  0.8689E-02  0.3451E+00  0.3451E+00
     45.861  0.7643E-02  0.7643E-02  0.3467E+00  0.3467E+00
     46.059  0.1824E-02  0.1824E-02  0.3489E+00  0.3489E+00
     46.257  0.6922E-02  0.6936E-02  0.3497E+00  0.3497E+00
     46.455  0.1020E-01  0.1021E-01  0.3515E+00  0.3515E+00
     46.653  0.1084E-01  0.1083E-01  0.3536E+00  0.3536E+00
     46.851  0.1276E-01  0.1276E-01  0.3560E+00  0.3560E+00
     47.049  0.9738E-02  0.9737E-02  0.3582E+00  0.3582E+00
     47.247  0.7455E-03  0.7449E-03  0.3595E+00  0.3595E+00
     47.445  0.6159E-03  0.6154E-03  0.3596E+00  0.3596E+00
     47.643  0.4998E-03  0.4994E-03  0.3597E+00  0.3597E+00
     47.841  0.3971E-03  0.3968E-03  0.3598E+00  0.3598E+00
     48.039  0.3079E-03  0.3077E-03  0.3599E+00  0.3599E+00
     48.237  0.0000E+00  0.0000E+00  0.3600E+00  0.3600E+00
     48.435  0.0000E+00  0.0000E+00  0.3600E+00  0.3600E+00
     48.633  0.0000E+00  0.0000E+00  0.3600E+00  0.3600E+00
     48.831  0.0000E+00  0.0000E+00  0.3600E+00  0.3600E+00
     49.029  0.0000E+00  0.0000E+00  0.3600E+00  0.3600E+00
     49.227  0.0000E+00  0.0000E+00  0.3600E+00  0.3600E+00
     49.425  0.0000E+00  0.0000E+00  0.3600E+00  0.3600E+00
     49.623  0.0000E+00  0.0000E+00  0.3600E+00  0.3600E+00
     49.821  0.0000E+00  0.0000E+00  0.3600E+00  0.3600E+00
     50.019  0.0000E+00  0.0000E+00  0.3600E+00  0.3600E+00
     50.217  0.0000E+00  0.0000E+00  0.3600E+00  0.3600E+00
     50.416  0.0000E+00  0.0000E+00  0.3600E+00  0.3600E+00
     50.614  0.0000E+00  0.0000E+00  0.3600E+00  0.3600E+00
     50.812  0.0000E+00  0.0000E+00  0.3600E+00  0.3600E+00
     50.81151746     -8.59070258  301      5.71533208      1.00000000
     -8.591  0.0000E+00  0.0000E+00  0.0000E+00  0.0000E+00  0.0000E+00  0.0000E+00  0.0000E+00  0.0000E+00  0.0000E+00  0.0000E+00  0.0000E+00  0.0000E+00  0.0000E+00  0.0000E+00  0.0000E+00  0.0000E+00  0.0000E+00  0.0000E+00
     -8.393  0.0000E+00  0.0000E+00  0.0000E+00  0.0000E+00  0.0000E+00  0.0000E+00  0.0000E+00  0.0000E+00  0.0000E+00  0.0000E+00  0.0000E+00  0.0000E+00  0.0000E+00  0.0000E+00  0.0000E+00  0.0000E+00  0.0000E+00  0.0000E+00
     -8.195  0.0000E+00  0.0000E+00  0.0000E+00  0.0000E+00  0.0000E+00  0.0000E+00  0.0000E+00  0.0000E+00  0.0000E+00  0.0000E+00  0.0000E+00  0.0000E+00  0.0000E+00  0.0000E+00  0.0000E+00  0.0000E+00  0.0000E+00  0.0000E+00
     -7.997  0.0000E+00  0.0000E+00  0.0000E+00  0.0000E+00  0.0000E+00  0.0000E+00  0.0000E+00  0.0000E+00  0.0000E+00  0.0000E+00  0.0000E+00  0.0000E+00  0.0000E+00  0.0000E+00  0.0000E+00  0.0000E+00  0.0000E+00  0.0000E+00
     -7.799  0.0000E+00  0.0000E+00  0.0000E+00  0.0000E+00  0.0000E+00  0.0000E+00  0.0000E+00  0.0000E+00  0.0000E+00  0.0000E+00  0.0000E+00  0.0000E+00  0.0000E+00  0.0000E+00  0.0000E+00  0.0000E+00  0.0000E+00  0.0000E+00
     -7.601  0.0000E+00  0.0000E+00  0.0000E+00  0.0000E+00  0.0000E+00  0.0000E+00  0.0000E+00  0.0000E+00  0.0000E+00  0.0000E+00  0.0000E+00  0.0000E+00  0.0000E+00  0.0000E+00  0.0000E+00  0.0000E+00  0.0000E+00  0.0000E+00
     -7.403  0.0000E+00  0.0000E+00  0.0000E+00  0.0000E+00  0.0000E+00  0.0000E+00  0.0000E+00  0.0000E+00  0.0000E+00  0.0000E+00  0.0000E+00  0.0000E+00  0.0000E+00  0.0000E+00  0.0000E+00  0.0000E+00  0.0000E+00  0.0000E+00
     -7.205  0.0000E+00  0.0000E+00  0.0000E+00  0.0000E+00  0.0000E+00  0.0000E+00  0.0000E+00  0.0000E+00  0.0000E+00  0.0000E+00  0.0000E+00  0.0000E+00  0.0000E+00  0.0000E+00  0.0000E+00  0.0000E+00  0.0000E+00  0.0000E+00
     -7.007  0.0000E+00  0.0000E+00  0.0000E+00  0.0000E+00  0.0000E+00  0.0000E+00  0.0000E+00  0.0000E+00  0.0000E+00  0.0000E+00  0.0000E+00  0.0000E+00  0.0000E+00  0.0000E+00  0.0000E+00  0.0000E+00  0.0000E+00  0.0000E+00
     -6.809  0.0000E+00  0.0000E+00  0.0000E+00  0.0000E+00  0.0000E+00  0.0000E+00  0.0000E+00  0.0000E+00  0.0000E+00  0.0000E+00  0.0000E+00  0.0000E+00  0.0000E+00  0.0000E+00  0.0000E+00  0.0000E+00  0.0000E+00  0.0000E+00
     -6.611  0.0000E+00  0.0000E+00  0.0000E+00  0.0000E+00  0.0000E+00  0.0000E+00  0.0000E+00  0.0000E+00  0.0000E+00  0.0000E+00  0.0000E+00  0.0000E+00  0.0000E+00  0.0000E+00  0.0000E+00  0.0000E+00  0.0000E+00  0.0000E+00
     -6.413  0.0000E+00  0.0000E+00  0.0000E+00  0.0000E+00  0.0000E+00  0.0000E+00  0.0000E+00  0.0000E+00  0.0000E+00  0.0000E+00  0.0000E+00  0.0000E+00  0.0000E+00  0.0000E+00  0.0000E+00  0.0000E+00  0.0000E+00  0.0000E+00
     -6.215  0.0000E+00  0.0000E+00  0.0000E+00  0.0000E+00  0.0000E+00  0.0000E+00  0.0000E+00  0.0000E+00  0.0000E+00  0.0000E+00  0.0000E+00  0.0000E+00  0.0000E+00  0.0000E+00  0.0000E+00  0.0000E+00  0.0000E+00  0.0000E+00
     -6.017  0.0000E+00  0.0000E+00  0.0000E+00  0.0000E+00  0.0000E+00  0.0000E+00  0.0000E+00  0.0000E+00  0.0000E+00  0.0000E+00  0.0000E+00  0.0000E+00  0.0000E+00  0.0000E+00  0.0000E+00  0.0000E+00  0.0000E+00  0.0000E+00
     -5.819  0.1174E-01  0.1174E-01  0.1008E-03  0.1008E-03  0.5042E-04  0.5042E-04  0.9828E-04  0.9829E-04  0.0000E+00  0.0000E+00  0.0000E+00  0.0000E+00  0.0000E+00  0.0000E+00  0.0000E+00  0.0000E+00  0.0000E+00  0.0000E+00
     -5.621  0.1994E-01  0.1995E-01  0.2272E-03  0.2272E-03  0.1136E-03  0.1136E-03  0.2227E-03  0.2227E-03  0.0000E+00  0.0000E+00  0.0000E+00  0.0000E+00  0.0000E+00  0.0000E+00  0.0000E+00  0.0000E+00  0.0000E+00  0.0000E+00
     -5.423  0.2983E-01  0.2983E-01  0.3904E-03  0.3905E-03  0.1952E-03  0.1952E-03  0.3907E-03  0.3908E-03  0.0000E+00  0.0000E+00  0.0000E+00  0.0000E+00  0.0000E+00  0.0000E+00  0.0000E+00  0.0000E+00  0.0000E+00  0.0000E+00
     -5.225  0.3298E-01  0.3298E-01  0.5062E-03  0.5062E-03  0.2396E-03  0.2396E-03  0.8129E-03  0.8129E-03  0.0000E+00  0.0000E+00  0.0000E+00  0.0000E+00  0.0000E+00  0.0000E+00  0.0000E+00  0.0000E+00  0.0000E+00  0.0000E+00
     -5.027  0.3725E-01  0.3725E-01  0.6836E-03  0.6836E-03  0.2833E-03  0.2833E-03  0.1110E-02  0.1110E-02  0.0000E+00  0.0000E+00  0.0000E+00  0.0000E+00  0.0000E+00  0.0000E+00  0.0000E+00  0.0000E+00  0.0000E+00  0.0000E+00
     -4.829  0.4090E-01  0.4090E-01  0.9097E-03  0.9097E-03  0.3324E-03  0.3324E-03  0.1376E-02  0.1376E-02  0.0000E+00  0.0000E+00  0.0000E+00  0.0000E+00  0.0000E+00  0.0000E+00  0.0000E+00  0.0000E+00  0.0000E+00  0.0000E+00
     -4.631  0.4692E-01  0.4692E-01  0.1286E-02  0.1286E-02  0.3940E-03  0.3940E-03  0.1642E-02  0.1642E-02  0.0000E+00  0.0000E+00  0.0000E+00  0.0000E+00  0.0000E+00  0.0000E+00  0.0000E+00  0.0000E+00  0.0000E+00  0.0000E+00
     -4.433  0.5471E-01  0.5471E-01  0.1773E-02  0.1774E-02  0.4730E-03  0.4730E-03  0.1946E-02  0.1946E-02  0.0000E+00  0.0000E+00  0.0000E+00  0.0000E+00  0.0000E+00  0.0000E+00  0.0000E+00  0.0000E+00  0.0000E+00  0.0000E+00
     -4.235  0.6351E-01  0.6352E-01  0.2334E-02  0.2334E-02  0.6459E-03  0.6459E-03  0.2314E-02  0.2314E-02  0.0000E+00  0.0000E+00  0.0000E+00  0.0000E+00  0.0000E+00  0.0000E+00  0.0000E+00  0.0000E+00  0.0000E+00  0.0000E+00
     -4.037  0.7148E-01  0.7148E-01  0.2809E-02  0.2809E-02  0.8816E-03  0.8816E-03  0.2687E-02  0.2687E-02  0.0000E+00  0.0000E+00  0.0000E+00  0.0000E+00  0.0000E+00  0.0000E+00  0.0000E+00  0.0000E+00  0.0000E+00  0.0000E+00
     -3.839  0.8368E-01  0.8369E-01  0.3591E-02  0.3592E-02  0.1234E-02  0.1234E-02  0.3259E-02  0.3259E-02  0.0000E+00  0.0000E+00  0.0000E+00  0.0000E+00  0.0000E+00  0.0000E+00  0.0000E+00  0.0000E+00  0.0000E+00  0.0000E+00
     -3.641  0.8777E-01  0.8778E-01  0.4080E-02  0.4080E-02  0.1543E-02  0.1543E-02  0.3795E-02  0.3795E-02  0.0000E+00  0.0000E+00  0.0000E+00  0.0000E+00  0.0000E+00  0.0000E+00  0.0000E+00  0.0000E+00  0.0000E+00  0.0000E+00
     -3.443  0.8478E-01  0.8478E-01  0.3885E-02  0.3885E-02  0.1707E-02  0.1707E-02  0.4073E-02  0.4073E-02  0.0000E+00  0.0000E+00  0.0000E+00  0.0000E+00  0.0000E+00  0.0000E+00  0.0000E+00  0.0000E+00  0.0000E+00  0.0000E+00
     -3.245  0.7836E-01  0.7836E-01  0.3565E-02  0.3565E-02  0.1806E-02  0.1806E-02  0.4119E-02  0.4119E-02  0.0000E+00  0.0000E+00  0.0000E+00  0.0000E+00  0.0000E+00  0.0000E+00  0.0000E+00  0.0000E+00  0.0000E+00  0.0000E+00
     -3.046  0.7812E-01  0.7813E-01  0.3396E-02  0.3396E-02  0.2081E-02  0.2081E-02  0.4601E-02  0.4601E-02  0.0000E+00  0.0000E+00  0.0000E+00  0.0000E+00  0.0000E+00  0.0000E+00  0.0000E+00  0.0000E+00  0.0000E+00  0.0000E+00
     -2.848  0.8217E-01  0.8217E-01  0.3362E-02  0.3362E-02  0.2512E-02  0.2512E-02  0.5359E-02  0.5359E-02  0.0000E+00  0.0000E+00  0.0000E+00  0.0000E+00  0.0000E+00  0.0000E+00  0.0000E+00  0.0000E+00  0.0000E+00  0.0000E+00
     -2.650  0.1213E+00  0.1213E+00  0.4792E-02  0.4792E-02  0.4800E-02  0.4800E-02  0.8983E-02  0.8983E-02  0.0000E+00  0.0000E+00  0.0000E+00  0.0000E+00  0.0000E+00  0.0000E+00  0.0000E+00  0.0000E+00  0.0000E+00  0.0000E+00
     -2.452  0.0000E+00  0.0000E+00  0.0000E+00  0.0000E+00  0.0000E+00  0.0000E+00  0.0000E+00  0.0000E+00  0.0000E+00  0.0000E+00  0.0000E+00  0.0000E+00  0.0000E+00  0.0000E+00  0.0000E+00  0.0000E+00  0.0000E+00  0.0000E+00
     -2.254  0.0000E+00  0.0000E+00  0.0000E+00  0.0000E+00  0.0000E+00  0.0000E+00  0.0000E+00  0.0000E+00  0.0000E+00  0.0000E+00  0.0000E+00  0.0000E+00  0.0000E+00  0.0000E+00  0.0000E+00  0.0000E+00  0.0000E+00  0.0000E+00
     -2.056  0.0000E+00  0.0000E+00  0.0000E+00  0.0000E+00  0.0000E+00  0.0000E+00  0.0000E+00  0.0000E+00  0.0000E+00  0.0000E+00  0.0000E+00  0.0000E+00  0.0000E+00  0.0000E+00  0.0000E+00  0.0000E+00  0.0000E+00  0.0000E+00
     -1.858  0.0000E+00  0.0000E+00  0.0000E+00  0.0000E+00  0.0000E+00  0.0000E+00  0.0000E+00  0.0000E+00  0.0000E+00  0.0000E+00  0.0000E+00  0.0000E+00  0.0000E+00  0.0000E+00  0.0000E+00  0.0000E+00  0.0000E+00  0.0000E+00
     -1.660  0.0000E+00  0.0000E+00  0.0000E+00  0.0000E+00  0.0000E+00  0.0000E+00  0.0000E+00  0.0000E+00  0.0000E+00  0.0000E+00  0.0000E+00  0.0000E+00  0.0000E+00  0.0000E+00  0.0000E+00  0.0000E+00  0.0000E+00  0.0000E+00
     -1.462  0.0000E+00  0.0000E+00  0.0000E+00  0.0000E+00  0.0000E+00  0.0000E+00  0.0000E+00  0.0000E+00  0.0000E+00  0.0000E+00  0.0000E+00  0.0000E+00  0.0000E+00  0.0000E+00  0.0000E+00  0.0000E+00  0.0000E+00  0.0000E+00
     -1.264  0.0000E+00  0.0000E+00  0.0000E+00  0.0000E+00  0.0000E+00  0.0000E+00  0.0000E+00  0.0000E+00  0.0000E+00  0.0000E+00  0.0000E+00  0.0000E+00  0.0000E+00  0.0000E+00  0.0000E+00  0.0000E+00  0.0000E+00  0.0000E+00
     -1.066  0.0000E+00  0.0000E+00  0.0000E+00  0.0000E+00  0.0000E+00  0.0000E+00  0.0000E+00  0.0000E+00  0.0000E+00  0.0000E+00  0.0000E+00  0.0000E+00  0.0000E+00  0.0000E+00  0.0000E+00  0.0000E+00  0.0000E+00  0.0000E+00
     -0.868  0.1205E+00  0.1205E+00  0.1669E-01  0.1669E-01  0.1098E-01  0.1098E-01  0.2397E-01  0.2397E-01  0.0000E+00  0.0000E+00  0.0000E+00  0.0000E+00  0.0000E+00  0.0000E+00  0.0000E+00  0.0000E+00  0.0000E+00  0.0000E+00
     -0.670  0.7729E-01  0.7729E-01  0.1616E-01  0.1616E-01  0.6912E-02  0.6912E-02  0.1695E-01  0.1695E-01  0.0000E+00  0.0000E+00  0.0000E+00  0.0000E+00  0.0000E+00  0.0000E+00  0.0000E+00  0.0000E+00  0.0000E+00  0.0000E+00
     -0.472  0.6767E-01  0.6767E-01  0.1531E-01  0.1531E-01  0.6066E-02  0.6066E-02  0.1485E-01  0.1485E-01  0.0000E+00  0.0000E+00  0.0000E+00  0.0000E+00  0.0000E+00  0.0000E+00  0.0000E+00  0.0000E+00  0.0000E+00  0.0000E+00
     -0.274  0.5714E-01  0.5714E-01  0.1377E-01  0.1377E-01  0.5144E-02  0.5144E-02  0.1267E-01  0.1267E-01  0.0000E+00  0.0000E+00  0.0000E+00  0.0000E+00  0.0000E+00  0.0000E+00  0.0000E+00  0.0000E+00  0.0000E+00  0.0000E+00
     -0.076  0.4569E-01  0.4569E-01  0.1155E-01  0.1155E-01  0.4147E-02  0.4146E-02  0.1042E-01  0.1042E-01  0.0000E+00  0.0000E+00  0.0000E+00  0.0000E+00  0.0000E+00  0.0000E+00  0.0000E+00  0.0000E+00  0.0000E+00  0.0000E+00
      0.122  0.3454E-01  0.3454E-01  0.8786E-02  0.8786E-02  0.3203E-02  0.3203E-02  0.8899E-02  0.8899E-02  0.0000E+00  0.0000E+00  0.0000E+00  0.0000E+00  0.0000E+00  0.0000E+00  0.0000E+00  0.0000E+00  0.0000E+00  0.0000E+00
      0.320  0.3075E-01  0.3075E-01  0.8009E-02  0.8009E-02  0.2881E-02  0.2881E-02  0.8400E-02  0.8400E-02  0.0000E+00  0.0000E+00  0.0000E+00  0.0000E+00  0.0000E+00  0.0000E+00  0.0000E+00  0.0000E+00  0.0000E+00  0.0000E+00
      0.518  0.2723E-01  0.2723E-01  0.7244E-02  0.7244E-02  0.2589E-02  0.2589E-02  0.7965E-02  0.7965E-02  0.0000E+00  0.0000E+00  0.0000E+00  0.0000E+00  0.0000E+00  0.0000E+00  0.0000E+00  0.0000E+00  0.0000E+00  0.0000E+00
      0.716  0.2400E-01  0.2400E-01  0.6490E-02  0.6490E-02  0.2328E-02  0.2328E-02  0.7594E-02  0.7594E-02  0.0000E+00  0.0000E+00  0.0000E+00  0.0000E+00  0.0000E+00  0.0000E+00  0.0000E+00  0.0000E+00  0.0000E+00  0.0000E+00
      0.914  0.2105E-01  0.2105E-01  0.5748E-02  0.5748E-02  0.2098E-02  0.2098E-02  0.7286E-02  0.7286E-02  0.0000E+00  0.0000E+00  0.0000E+00  0.0000E+00  0.0000E+00  0.0000E+00  0.0000E+00  0.0000E+00  0.0000E+00  0.0000E+00
      1.112  0.1765E-01  0.1765E-01  0.4867E-02  0.4866E-02  0.1877E-02  0.1877E-02  0.7068E-02  0.7068E-02  0.0000E+00  0.0000E+00  0.0000E+00  0.0000E+00  0.0000E+00  0.0000E+00  0.0000E+00  0.0000E+00  0.0000E+00  0.0000E+00
      1.310  0.1463E-01  0.1463E-01  0.3958E-02  0.3958E-02  0.1683E-02  0.1683E-02  0.6548E-02  0.6548E-02  0.0000E+00  0.0000E+00  0.0000E+00  0.0000E+00  0.0000E+00  0.0000E+00  0.0000E+00  0.0000E+00  0.0000E+00  0.0000E+00