    2    2  100    2
  0.2044415E+02  0.3866975E-09  0.3866975E-09  0.3866975E-09  0.5000000E-15
  1.000000000000000E-004
  CAR 
 unknown system                          
      8     10     36
 
  0.1250000E+00  0.1250000E+00  0.1250000E+00  0.3125000E-01
    1       -5.890585     -5.890602   1.000000   1.000000
    2        4.334560      4.334546   1.000000   1.000000
    3        5.643576      5.643566   1.000000   1.000000
    4        5.643576      5.643566   1.000000   1.000000
    5        8.469929      8.469905   0.000000   0.000000
    6        8.933563      8.933544   0.000000   0.000000
    7        8.933564      8.933544   0.000000   0.000000
    8       10.749731     10.749699   0.000000   0.000000
    9       13.174171     13.174149   0.000000   0.000000
   10       13.174171     13.174149   0.000000   0.000000
   11       14.728362     14.728335   0.000000   0.000000
   12       16.661797     16.661782   0.000000   0.000000
   13       18.396473     18.396455   0.000000   0.000000
   14       18.396473     18.396456   0.000000   0.000000
   15       22.649839     22.649822   0.000000   0.000000
   16       27.135166     27.135136   0.000000   0.000000
   17       27.135167     27.135136   0.000000   0.000000
   18       27.487372     27.487346   0.000000   0.000000
   19       29.933191     29.933132   0.000000   0.000000
   20       29.933191     29.933132   0.000000   0.000000
   21       32.484838     32.484820   0.000000   0.000000
   22       32.484838     32.484820   0.000000   0.000000
   23       33.365599     33.365579   0.000000   0.000000
   24       35.484089     35.484098   0.000000   0.000000
   25       37.515126     37.515118   0.000000   0.000000
   26       37.515126     37.515118   0.000000   0.000000
   27       38.682784     38.682763   0.000000   0.000000
   28       40.554496     40.554470   0.000000   0.000000
   29       40.554496     40.554470   0.000000   0.000000
   30       42.985007     42.984986   0.000000   0.000000
   31       42.985007     42.984986   0.000000   0.000000
   32       44.841768     44.841769   0.000000   0.000000
   33       44.841768     44.841769   0.000000   0.000000
   34       45.118740     45.118747   0.000000   0.000000
   35       48.111087     48.111036   0.000000   0.000000
   36       48.111417     48.111278   0.000000   0.000000
 
  0.3750000E+00  0.1250000E+00  0.1250000E+00  0.9375000E-01
    1       -4.834175     -4.834192   1.000000   1.000000
    2        1.291152      1.291136   1.000000   1.000000
    3        3.605523      3.605509   1.000000   1.000000
    4        5.156928      5.156918   1.000000   1.000000
    5        8.689911      8.689886   0.000000   0.000000
    6        9.622520      9.622499   0.000000   0.000000
    7        9.802408      9.802391   0.000000   0.000000
    8       12.281500     12.281478   0.000000   0.000000
    9       12.405676     12.405659   0.000000   0.000000
   10       15.830451     15.830429   0.000000   0.000000
   11       16.080651     16.080627   0.000000   0.000000
   12       18.441286     18.441256   0.000000   0.000000
   13       19.994095     19.994081   0.000000   0.000000
   14       21.451613     21.451583   0.000000   0.000000
   15       22.411963     22.411941   0.000000   0.000000
   16       24.123756     24.123733   0.000000   0.000000
   17       24.876686     24.876654   0.000000   0.000000
   18       27.827949     27.827926   0.000000   0.000000
   19       28.048697     28.048659   0.000000   0.000000
   20       29.004213     29.004169   0.000000   0.000000
   21       32.186985     32.186960   0.000000   0.000000
   22       32.692268     32.692243   0.000000   0.000000
   23       33.525949     33.525933   0.000000   0.000000
   24       35.615781     35.615776   0.000000   0.000000
   25       35.840997     35.840975   0.000000   0.000000
   26       37.138506     37.138490   0.000000   0.000000
   27       37.241999     37.241981   0.000000   0.000000
   28       38.351560     38.351545   0.000000   0.000000
   29       39.321136     39.321129   0.000000   0.000000
   30       40.430088     40.430067   0.000000   0.000000
   31       40.735276     40.735256   0.000000   0.000000
   32       43.278338     43.278335   0.000000   0.000000
   33       43.848945     43.848944   0.000000   0.000000
   34       44.705492     44.705496   0.000000   0.000000
   35       44.928480     44.928471   0.000000   0.000000
   36       46.062932     46.062926   0.000000   0.000000
 
 -0.3750000E+00  0.1250000E+00  0.1250000E+00  0.9375000E-01
    1       -3.651560     -3.651577   1.000000   1.000000
    2       -0.854569     -0.854585   1.000000   1.000000
    3        3.641730      3.641716   1.000000   1.000000
    4        4.360732      4.360721   1.000000   1.000000
    5        8.145725      8.145703   0.000000   0.000000
    6        9.465750      9.465730   0.000000   0.000000
    7       10.039350     10.039330   0.000000   0.000000
    8       13.339916     13.339898   0.000000   0.000000
    9       14.958868     14.958855   0.000000   0.000000
   10       16.450252     16.450244   0.000000   0.000000
   11       17.553935     17.553905   0.000000   0.000000
   12       17.649046     17.649014   0.000000   0.000000
   13       18.585059     18.585028   0.000000   0.000000
   14       21.104144     21.104107   0.000000   0.000000
   15       24.374395     24.374378   0.000000   0.000000
   16       25.692422     25.692390   0.000000   0.000000
   17       26.372501     26.372476   0.000000   0.000000
   18       27.148878     27.148843   0.000000   0.000000
   19       28.006637     28.006592   0.000000   0.000000
   20       28.382375     28.382345   0.000000   0.000000
   21       30.805287     30.805280   0.000000   0.000000
   22       32.109535     32.109505   0.000000   0.000000
   23       32.464032     32.464030   0.000000   0.000000
   24       33.710031     33.710008   0.000000   0.000000
   25       34.235977     34.235959   0.000000   0.000000
   26       35.785607     35.785597   0.000000   0.000000
   27       36.133101     36.133090   0.000000   0.000000
   28       36.539573     36.539563   0.000000   0.000000
   29       38.963748     38.963722   0.000000   0.000000
   30       39.271766     39.271759   0.000000   0.000000
   31       39.980704     39.980691   0.000000   0.000000
   32       41.194522     41.194512   0.000000   0.000000
   33       43.436406     43.436411   0.000000   0.000000
   34       43.751702     43.751695   0.000000   0.000000
   35       44.946893     44.946893   0.000000   0.000000
   36       46.786798     46.786791   0.000000   0.000000
 
 -0.1250000E+00  0.1250000E+00  0.1250000E+00  0.9375000E-01
    1       -5.348015     -5.348031   1.000000   1.000000
    2        2.705057      2.705041   1.000000   1.000000
    3        4.604002      4.603990   1.000000   1.000000
    4        4.686697      4.686684   1.000000   1.000000
    5        8.086399      8.086380   0.000000   0.000000
    6        9.690140      9.690115   0.000000   0.000000
    7       10.425292     10.425274   0.000000   0.000000
    8       10.690138     10.690120   0.000000   0.000000
    9       13.523208     13.523180   0.000000   0.000000
   10       14.134388     14.134365   0.000000   0.000000
   11       16.013064     16.013040   0.000000   0.000000
   12       17.579146     17.579124   0.000000   0.000000
   13       19.128084     19.128069   0.000000   0.000000
   14       20.404685     20.404665   0.000000   0.000000
   15       23.627996     23.627967   0.000000   0.000000
   16       24.149868     24.149844   0.000000   0.000000
   17       25.307945     25.307924   0.000000   0.000000
   18       27.620570     27.620529   0.000000   0.000000
   19       27.676231     27.676191   0.000000   0.000000
   20       29.131357     29.131327   0.000000   0.000000
   21       32.402582     32.402546   0.000000   0.000000
   22       33.428924     33.428911   0.000000   0.000000
   23       34.408821     34.408798   0.000000   0.000000
   24       36.014657     36.014639   0.000000   0.000000
   25       37.592246     37.592221   0.000000   0.000000
   26       37.885738     37.885727   0.000000   0.000000
   27       38.263811     38.263796   0.000000   0.000000
   28       39.097827     39.097821   0.000000   0.000000
   29       39.683426     39.683404   0.000000   0.000000
   30       40.362936     40.362925   0.000000   0.000000
   31       41.966374     41.966371   0.000000   0.000000
   32       41.993839     41.993814   0.000000   0.000000
   33       44.483634     44.483644   0.000000   0.000000
   34       44.987766     44.987762   0.000000   0.000000
   35       46.356097     46.356093   0.000000   0.000000
   36       46.498382     46.496545   0.000000   0.000000
 
  0.3750000E+00  0.3750000E+00  0.1250000E+00  0.9375000E-01
    1       -4.287526     -4.287543   1.000000   1.000000
    2        0.985842      0.985825   1.000000   1.000000
    3        3.239926      3.239913   1.000000   1.000000
    4        3.707213      3.707200   1.000000   1.000000
    5        7.276658      7.276639   0.000000   0.000000
    6        8.824738      8.824719   0.000000   0.000000
    7       11.980965     11.980946   0.000000   0.000000
    8       12.235812     12.235794   0.000000   0.000000
    9       15.942277     15.942254   0.000000   0.000000
   10       16.237146     16.237115   0.000000   0.000000
   11       17.662055     17.662034   0.000000   0.000000
   12       19.210614     19.210602   0.000000   0.000000
   13       19.775595     19.775564   0.000000   0.000000
   14       20.851311     20.851296   0.000000   0.000000
   15       21.899530     21.899500   0.000000   0.000000
   16       23.138976     23.138948   0.000000   0.000000
   17       24.436439     24.436405   0.000000   0.000000
   18       26.001846     26.001806   0.000000   0.000000
   19       27.957161     27.957136   0.000000   0.000000
   20       30.247345     30.247324   0.000000   0.000000
   21       31.306053     31.306025   0.000000   0.000000
   22       32.451702     32.451677   0.000000   0.000000
   23       32.545845     32.545809   0.000000   0.000000
   24       33.541506     33.541495   0.000000   0.000000
   25       35.068926     35.068918   0.000000   0.000000
   26       35.359627     35.359611   0.000000   0.000000
   27       36.630397     36.630390   0.000000   0.000000
   28       39.466696     39.466695   0.000000   0.000000
   29       39.499065     39.499046   0.000000   0.000000
   30       41.415401     41.415396   0.000000   0.000000
   31       42.746181     42.746179   0.000000   0.000000
   32       43.049737     43.049727   0.000000   0.000000
   33       43.246398     43.246388   0.000000   0.000000
   34       43.567270     43.567259   0.000000   0.000000
   35       45.616245     45.616236   0.000000   0.000000
   36       46.191787     46.191761   0.000000   0.000000
 
 -0.3750000E+00  0.3750000E+00  0.1250000E+00  0.1875000E+00
    1       -2.592526     -2.592544   1.000000   1.000000
    2       -1.020960     -1.020977   1.000000   1.000000
    3        1.832257      1.832243   1.000000   1.000000
    4        2.944679      2.944666   1.000000   1.000000
    5        8.320217      8.320198   0.000000   0.000000
    6       10.220582     10.220567   0.000000   0.000000
    7       11.247269     11.247245   0.000000   0.000000
    8       13.420112     13.420090   0.000000   0.000000
    9       14.389122     14.389106   0.000000   0.000000
   10       17.083892     17.083879   0.000000   0.000000
   11       18.245667     18.245635   0.000000   0.000000
   12       20.335426     20.335393   0.000000   0.000000
   13       21.402519     21.402486   0.000000   0.000000
   14       22.046803     22.046778   0.000000   0.000000
   15       23.554507     23.554477   0.000000   0.000000
   16       24.400838     24.400814   0.000000   0.000000
   17       24.796083     24.796053   0.000000   0.000000
   18       25.474703     25.474682   0.000000   0.000000
   19       27.145550     27.145506   0.000000   0.000000
   20       27.841172     27.841154   0.000000   0.000000
   21       28.832327     28.832303   0.000000   0.000000
   22       30.227846     30.227836   0.000000   0.000000
   23       31.129574     31.129545   0.000000   0.000000
   24       33.643360     33.643347   0.000000   0.000000
   25       34.266057     34.266051   0.000000   0.000000
   26       35.086836     35.086837   0.000000   0.000000
   27       36.837796     36.837768   0.000000   0.000000
   28       37.498807     37.498802   0.000000   0.000000
   29       38.148776     38.148762   0.000000   0.000000
   30       38.701503     38.701488   0.000000   0.000000
   31       40.699254     40.699256   0.000000   0.000000
   32       42.713845     42.713841   0.000000   0.000000
   33       44.515766     44.515749   0.000000   0.000000
   34       45.468558     45.468553   0.000000   0.000000
   35       46.010044     46.010031   0.000000   0.000000
   36       47.077982     47.077969   0.000000   0.000000
 
 -0.1250000E+00  0.3750000E+00  0.1250000E+00  0.1875000E+00
    1       -3.856444     -3.856462   1.000000   1.000000
    2        0.070748      0.070731   1.000000   1.000000
    3        2.585518      2.585503   1.000000   1.000000
    4        3.988079      3.988067   1.000000   1.000000
    5        8.819284      8.819264   0.000000   0.000000
    6        9.502672      9.502652   0.000000   0.000000
    7       10.976400     10.976380   0.000000   0.000000
    8       11.901590     11.901573   0.000000   0.000000
    9       15.003162     15.003142   0.000000   0.000000
   10       15.725104     15.725084   0.000000   0.000000
   11       17.985976     17.985953   0.000000   0.000000
   12       18.974916     18.974888   0.000000   0.000000
   13       20.266025     20.265993   0.000000   0.000000
   14       21.151796     21.151780   0.000000   0.000000
   15       23.293717     23.293689   0.000000   0.000000
   16       24.311530     24.311497   0.000000   0.000000
   17       25.059781     25.059750   0.000000   0.000000
   18       27.040810     27.040776   0.000000   0.000000
   19       27.913225     27.913180   0.000000   0.000000
   20       28.888193     28.888185   0.000000   0.000000
   21       30.365123     30.365103   0.000000   0.000000
   22       31.810573     31.810544   0.000000   0.000000
   23       32.134479     32.134460   0.000000   0.000000
   24       33.371228     33.371221   0.000000   0.000000
   25       34.914479     34.914450   0.000000   0.000000
   26       35.755707     35.755696   0.000000   0.000000
   27       37.358404     37.358393   0.000000   0.000000
   28       37.495422     37.495412   0.000000   0.000000
   29       38.596253     38.596237   0.000000   0.000000
   30       39.351468     39.351459   0.000000   0.000000
   31       41.139149     41.139154   0.000000   0.000000
   32       42.089359     42.089350   0.000000   0.000000
   33       42.642658     42.642652   0.000000   0.000000
   34       45.165065     45.165048   0.000000   0.000000
   35       45.528042     45.528029   0.000000   0.000000
   36       47.185489     47.185461   0.000000   0.000000
 
 -0.3750000E+00 -0.3750000E+00  0.1250000E+00  0.9375000E-01
    1       -2.773021     -2.773038   1.000000   1.000000
    2       -0.916635     -0.916653   1.000000   1.000000
    3        2.464364      2.464350   1.000000   1.000000
    4        3.228958      3.228945   1.000000   1.000000
    5        6.811370      6.811351   0.000000   0.000000
    6        7.893444      7.893426   0.000000   0.000000
    7       14.248317     14.248296   0.000000   0.000000
    8       14.355594     14.355574   0.000000   0.000000
    9       16.775934     16.775915   0.000000   0.000000
   10       16.787052     16.787041   0.000000   0.000000
   11       18.297353     18.297327   0.000000   0.000000
   12       18.951592     18.951556   0.000000   0.000000
   13       20.943447     20.943420   0.000000   0.000000
   14       21.003667     21.003635   0.000000   0.000000
   15       21.949157     21.949132   0.000000   0.000000
   16       24.736317     24.736288   0.000000   0.000000
   17       24.865411     24.865377   0.000000   0.000000
   18       25.463700     25.463661   0.000000   0.000000
   19       26.865491     26.865479   0.000000   0.000000
   20       28.366326     28.366301   0.000000   0.000000
   21       28.855569     28.855546   0.000000   0.000000
   22       29.566650     29.566648   0.000000   0.000000
   23       30.200051     30.200012   0.000000   0.000000
   24       31.937034     31.937022   0.000000   0.000000
   25       35.504546     35.504542   0.000000   0.000000
   26       36.217781     36.217762   0.000000   0.000000
   27       38.063396     38.063386   0.000000   0.000000
   28       39.060723     39.060714   0.000000   0.000000
   29       39.092044     39.092028   0.000000   0.000000
   30       40.730628     40.730635   0.000000   0.000000
   31       41.748685     41.748673   0.000000   0.000000
   32       43.022636     43.022620   0.000000   0.000000
   33       43.596212     43.596202   0.000000   0.000000
   34       44.956368     44.956339   0.000000   0.000000
   35       46.047818     46.047811   0.000000   0.000000
   36       46.434686     46.434663   0.000000   0.000000
 
  0.3750000E+00  0.3750000E+00  0.3750000E+00  0.3125000E-01
    1       -4.385561     -4.385578   1.000000   1.000000
    2       -0.046631     -0.046647   1.000000   1.000000
    3        4.841286      4.841275   1.000000   1.000000
    4        4.841287      4.841276   1.000000   1.000000
    5        7.640736      7.640709   0.000000   0.000000
    6        9.385711      9.385691   0.000000   0.000000
    7        9.385711      9.385691   0.000000   0.000000
    8       13.841512     13.841498   0.000000   0.000000
    9       14.538737     14.538720   0.000000   0.000000
   10       14.538737     14.538720   0.000000   0.000000
   11       15.722199     15.722169   0.000000   0.000000
   12       19.763668     19.763645   0.000000   0.000000
   13       19.763668     19.763645   0.000000   0.000000
   14       20.159667     20.159618   0.000000   0.000000
   15       22.721651     22.721645   0.000000   0.000000
   16       24.570201     24.570171   0.000000   0.000000
   17       24.570201     24.570172   0.000000   0.000000
   18       29.060203     29.060179   0.000000   0.000000
   19       29.950373     29.950313   0.000000   0.000000
   20       29.950373     29.950313   0.000000   0.000000
   21       29.972436     29.972424   0.000000   0.000000
   22       32.955276     32.955266   0.000000   0.000000
   23       32.955276     32.955266   0.000000   0.000000
   24       34.480530     34.480527   0.000000   0.000000
   25       34.480530     34.480527   0.000000   0.000000
   26       36.018428     36.018408   0.000000   0.000000
   27       36.698517     36.698523   0.000000   0.000000
   28       38.773350     38.773323   0.000000   0.000000
   29       38.773350     38.773323   0.000000   0.000000
   30       39.724950     39.724920   0.000000   0.000000
   31       39.724950     39.724920   0.000000   0.000000
   32       40.915288     40.915285   0.000000   0.000000
   33       43.443953     43.443974   0.000000   0.000000
   34       43.776963     43.776974   0.000000   0.000000
   35       47.021751     47.021756   0.000000   0.000000
   36       47.021753     47.021765   0.000000   0.000000
 
 -0.3750000E+00  0.3750000E+00  0.3750000E+00  0.9375000E-01
    1       -3.142680     -3.142697   1.000000   1.000000
    2       -0.736021     -0.736038   1.000000   1.000000
    3        1.904830      1.904816   1.000000   1.000000
    4        4.032968      4.032956   1.000000   1.000000
    5        7.774220      7.774199   0.000000   0.000000
    6       11.430920     11.430906   0.000000   0.000000
    7       11.435095     11.435073   0.000000   0.000000
    8       12.937175     12.937153   0.000000   0.000000
    9       13.933389     13.933375   0.000000   0.000000
   10       14.022555     14.022530   0.000000   0.000000
   11       18.564584     18.564560   0.000000   0.000000
   12       20.836168     20.836145   0.000000   0.000000
   13       21.212291     21.212247   0.000000   0.000000
   14       22.062367     22.062334   0.000000   0.000000
   15       22.496309     22.496300   0.000000   0.000000
   16       24.438147     24.438110   0.000000   0.000000
   17       25.513577     25.513557   0.000000   0.000000
   18       26.039592     26.039550   0.000000   0.000000
   19       27.892046     27.892021   0.000000   0.000000
   20       28.152552     28.152520   0.000000   0.000000
   21       30.792078     30.792036   0.000000   0.000000
   22       31.488029     31.488013   0.000000   0.000000
   23       31.897029     31.897038   0.000000   0.000000
   24       32.436680     32.436666   0.000000   0.000000
   25       34.037192     34.037166   0.000000   0.000000
   26       34.817661     34.817643   0.000000   0.000000
   27       35.488504     35.488505   0.000000   0.000000
   28       36.224100     36.224087   0.000000   0.000000
   29       39.606506     39.606497   0.000000   0.000000
   30       40.292903     40.292889   0.000000   0.000000
   31       41.990666     41.990666   0.000000   0.000000
   32       42.247466     42.247456   0.000000   0.000000
   33       43.154592     43.154583   0.000000   0.000000
   34       43.631748     43.631735   0.000000   0.000000
   35       44.317749     44.317741   0.000000   0.000000
   36       46.284466     46.284458   0.000000   0.000000
