PROCAR lm decomposed
# of k-points:   10         # of bands:  36         # of ions:   2

 k-point    1 :    0.12500000 0.12500000 0.12500000     weight = 0.03125000

band   1 # energy   -5.89058490 # occ.  1.00000000
 
ion      s     py     pz     px    dxy    dyz    dz2    dxz    dx2    tot
  1  0.213  0.001  0.000  0.002  0.000  0.000  0.000  0.000  0.000  0.215
  2  0.213  0.001  0.000  0.002  0.000  0.000  0.000  0.000  0.000  0.215
tot  0.426  0.001  0.001  0.003  0.000  0.000  0.000  0.000  0.000  0.431
 
band   2 # energy    4.33455986 # occ.  1.00000000
 
ion      s     py     pz     px    dxy    dyz    dz2    dxz    dx2    tot
  1  0.060  0.036  0.018  0.107  0.000  0.000  0.000  0.000  0.000  0.220
  2  0.060  0.036  0.018  0.107  0.000  0.000  0.000  0.000  0.000  0.220
tot  0.120  0.071  0.036  0.214  0.000  0.000  0.000  0.000  0.000  0.440
 
band   3 # energy    5.64357555 # occ.  1.00000000
 
ion      s     py     pz     px    dxy    dyz    dz2    dxz    dx2    tot
  1  0.000  0.057  0.157  0.001  0.000  0.000  0.000  0.000  0.000  0.214
  2  0.000  0.057  0.157  0.001  0.000  0.000  0.000  0.000  0.000  0.214
tot  0.000  0.115  0.313  0.001  0.000  0.000  0.000  0.000  0.000  0.429
 
band   4 # energy    5.64357620 # occ.  1.00000000
 
ion      s     py     pz     px    dxy    dyz    dz2    dxz    dx2    tot
  1  0.000  0.110  0.034  0.071  0.000  0.000  0.000  0.000  0.000  0.214
  2  0.000  0.110  0.034  0.071  0.000  0.000  0.000  0.000  0.000  0.214
tot  0.000  0.219  0.068  0.142  0.000  0.000  0.000  0.000  0.000  0.429
 
band   5 # energy    8.46992898 # occ.  0.00000000
 
ion      s     py     pz     px    dxy    dyz    dz2    dxz    dx2    tot
  1  0.098  0.021  0.010  0.062  0.000  0.000  0.000  0.000  0.000  0.191
  2  0.098  0.021  0.010  0.062  0.000  0.000  0.000  0.000  0.000  0.191
tot  0.195  0.042  0.021  0.125  0.000  0.000  0.000  0.000  0.000  0.382
 
band   6 # energy    8.93356333 # occ.  0.00000000
 
ion      s     py     pz     px    dxy    dyz    dz2    dxz    dx2    tot
  1  0.000  0.079  0.025  0.051  0.000  0.000  0.000  0.000  0.000  0.155
  2  0.000  0.079  0.025  0.051  0.000  0.000  0.000  0.000  0.000  0.155
tot  0.000  0.158  0.049  0.103  0.000  0.000  0.000  0.000  0.000  0.311
 
band   7 # energy    8.93356369 # occ.  0.00000000
 
ion      s     py     pz     px    dxy    dyz    dz2    dxz    dx2    tot
  1  0.000  0.042  0.113  0.000  0.000  0.000  0.000  0.000  0.000  0.155
  2  0.000  0.042  0.113  0.000  0.000  0.000  0.000  0.000  0.000  0.155
tot  0.000  0.083  0.227  0.001  0.000  0.000  0.000  0.000  0.000  0.311
 
band   8 # energy   10.74973124 # occ.  0.00000000
 
ion      s     py     pz     px    dxy    dyz    dz2    dxz    dx2    tot
  1  0.213  0.021  0.010  0.062  0.000  0.000  0.000  0.000  0.000  0.305
  2  0.213  0.021  0.010  0.062  0.000  0.000  0.000  0.000  0.000  0.305
tot  0.426  0.041  0.021  0.123  0.000  0.000  0.000  0.000  0.000  0.610
 
band   9 # energy   13.17417121 # occ.  0.00000000
 
ion      s     py     pz     px    dxy    dyz    dz2    dxz    dx2    tot
  1  0.000  0.001  0.001  0.000  0.000  0.000  0.000  0.000  0.000  0.002
  2  0.000  0.001  0.001  0.000  0.000  0.000  0.000  0.000  0.000  0.002
tot  0.000  0.001  0.003  0.000  0.000  0.000  0.000  0.000  0.000  0.004
 
band  10 # energy   13.17417124 # occ.  0.00000000
 
ion      s     py     pz     px    dxy    dyz    dz2    dxz    dx2    tot
  1  0.000  0.001  0.000  0.001  0.000  0.000  0.000  0.000  0.000  0.002
  2  0.000  0.001  0.000  0.001  0.000  0.000  0.000  0.000  0.000  0.002
tot  0.000  0.002  0.001  0.001  0.000  0.000  0.000  0.000  0.000  0.004
 
band  11 # energy   14.72836216 # occ.  0.00000000
 
ion      s     py     pz     px    dxy    dyz    dz2    dxz    dx2    tot
  1  0.079  0.007  0.004  0.022  0.000  0.000  0.000  0.000  0.000  0.111
  2  0.079  0.007  0.004  0.022  0.000  0.000  0.000  0.000  0.000  0.111
tot  0.157  0.014  0.007  0.043  0.000  0.000  0.000  0.000  0.000  0.222
 
band  12 # energy   16.66179739 # occ.  0.00000000
 
ion      s     py     pz     px    dxy    dyz    dz2    dxz    dx2    tot
  1  0.017  0.005  0.002  0.015  0.000  0.000  0.000  0.000  0.000  0.039
  2  0.017  0.005  0.002  0.015  0.000  0.000  0.000  0.000  0.000  0.039
tot  0.034  0.010  0.005  0.030  0.000  0.000  0.000  0.000  0.000  0.078
 
band  13 # energy   18.39647267 # occ.  0.00000000
 
ion      s     py     pz     px    dxy    dyz    dz2    dxz    dx2    tot
  1  0.000  0.018  0.006  0.012  0.000  0.000  0.000  0.000  0.000  0.036
  2  0.000  0.018  0.006  0.012  0.000  0.000  0.000  0.000  0.000  0.036
tot  0.000  0.037  0.011  0.024  0.000  0.000  0.000  0.000  0.000  0.072
 
band  14 # energy   18.39647304 # occ.  0.00000000
 
ion      s     py     pz     px    dxy    dyz    dz2    dxz    dx2    tot
  1  0.000  0.010  0.026  0.000  0.000  0.000  0.000  0.000  0.000  0.036
  2  0.000  0.010  0.026  0.000  0.000  0.000  0.000  0.000  0.000  0.036
tot  0.000  0.019  0.053  0.000  0.000  0.000  0.000  0.000  0.000  0.072
 
band  15 # energy   22.64983904 # occ.  0.00000000
 
ion      s     py     pz     px    dxy    dyz    dz2    dxz    dx2    tot
  1  0.027  0.004  0.002  0.011  0.000  0.000  0.000  0.000  0.000  0.043
  2  0.027  0.004  0.002  0.011  0.000  0.000  0.000  0.000  0.000  0.043
tot  0.054  0.007  0.004  0.021  0.000  0.000  0.000  0.000  0.000  0.086
 
band  16 # energy   27.13516626 # occ.  0.00000000
 
ion      s     py     pz     px    dxy    dyz    dz2    dxz    dx2    tot
  1  0.000  0.011  0.029  0.000  0.000  0.000  0.000  0.000  0.000  0.040
  2  0.000  0.011  0.029  0.000  0.000  0.000  0.000  0.000  0.000  0.040
tot  0.000  0.022  0.059  0.000  0.000  0.000  0.000  0.000  0.000  0.081
 
band  17 # energy   27.13516664 # occ.  0.00000000
 
ion      s     py     pz     px    dxy    dyz    dz2    dxz    dx2    tot
  1  0.000  0.021  0.006  0.013  0.000  0.000  0.000  0.000  0.000  0.040
  2  0.000  0.021  0.006  0.013  0.000  0.000  0.000  0.000  0.000  0.040
tot  0.000  0.041  0.013  0.027  0.000  0.000  0.000  0.000  0.000  0.081
 
band  18 # energy   27.48737237 # occ.  0.00000000
 
ion      s     py     pz     px    dxy    dyz    dz2    dxz    dx2    tot
  1  0.007  0.021  0.011  0.063  0.000  0.000  0.000  0.000  0.000  0.102
  2  0.007  0.021  0.011  0.063  0.000  0.000  0.000  0.000  0.000  0.102
tot  0.013  0.042  0.021  0.127  0.000  0.000  0.000  0.000  0.000  0.203
 
band  19 # energy   29.93319094 # occ.  0.00000000
 
ion      s     py     pz     px    dxy    dyz    dz2    dxz    dx2    tot
  1  0.000  0.003  0.001  0.002  0.000  0.000  0.000  0.000  0.000  0.007
  2  0.000  0.003  0.001  0.002  0.000  0.000  0.000  0.000  0.000  0.007
tot  0.000  0.007  0.002  0.004  0.000  0.000  0.000  0.000  0.000  0.013
 
band  20 # energy   29.93319109 # occ.  0.00000000
 
ion      s     py     pz     px    dxy    dyz    dz2    dxz    dx2    tot
  1  0.000  0.002  0.005  0.000  0.000  0.000  0.000  0.000  0.000  0.007
  2  0.000  0.002  0.005  0.000  0.000  0.000  0.000  0.000  0.000  0.007
tot  0.000  0.003  0.010  0.000  0.000  0.000  0.000  0.000  0.000  0.013
 
band  21 # energy   32.48483768 # occ.  0.00000000
 
ion      s     py     pz     px    dxy    dyz    dz2    dxz    dx2    tot
  1  0.000  0.096  0.026  0.060  0.000  0.000  0.000  0.000  0.000  0.183
  2  0.000  0.096  0.026  0.060  0.000  0.000  0.000  0.000  0.000  0.183
tot  0.000  0.193  0.053  0.121  0.000  0.000  0.000  0.000  0.000  0.366
 
band  22 # energy   32.48483770 # occ.  0.00000000
 
ion      s     py     pz     px    dxy    dyz    dz2    dxz    dx2    tot
  1  0.000  0.046  0.136  0.001  0.000  0.000  0.000  0.000  0.000  0.183
  2  0.000  0.046  0.136  0.001  0.000  0.000  0.000  0.000  0.000  0.183
tot  0.000  0.092  0.273  0.001  0.000  0.000  0.000  0.000  0.000  0.366
 
band  23 # energy   33.36559898 # occ.  0.00000000
 
ion      s     py     pz     px    dxy    dyz    dz2    dxz    dx2    tot
  1  0.014  0.025  0.013  0.076  0.000  0.000  0.000  0.000  0.000  0.128
  2  0.014  0.025  0.013  0.076  0.000  0.000  0.000  0.000  0.000  0.128
tot  0.028  0.051  0.025  0.152  0.000  0.000  0.000  0.000  0.000  0.256
 
band  24 # energy   35.48408894 # occ.  0.00000000
 
ion      s     py     pz     px    dxy    dyz    dz2    dxz    dx2    tot
  1  0.000  0.000  0.000  0.000  0.000  0.000  0.000  0.000  0.000  0.000
  2  0.000  0.000  0.000  0.000  0.000  0.000  0.000  0.000  0.000  0.000
tot  0.000  0.000  0.000  0.000  0.000  0.000  0.000  0.000  0.000  0.000
 
band  25 # energy   37.51512591 # occ.  0.00000000
 
ion      s     py     pz     px    dxy    dyz    dz2    dxz    dx2    tot
  1  0.000  0.001  0.002  0.000  0.000  0.000  0.000  0.000  0.000  0.003
  2  0.000  0.001  0.002  0.000  0.000  0.000  0.000  0.000  0.000  0.003
tot  0.000  0.002  0.004  0.000  0.000  0.000  0.000  0.000  0.000  0.006
 
band  26 # energy   37.51512611 # occ.  0.00000000
 
ion      s     py     pz     px    dxy    dyz    dz2    dxz    dx2    tot
  1  0.000  0.002  0.000  0.001  0.000  0.000  0.000  0.000  0.000  0.003
  2  0.000  0.002  0.000  0.001  0.000  0.000  0.000  0.000  0.000  0.003
tot  0.000  0.003  0.001  0.002  0.000  0.000  0.000  0.000  0.000  0.006
 
band  27 # energy   38.68278390 # occ.  0.00000000
 
ion      s     py     pz     px    dxy    dyz    dz2    dxz    dx2    tot
  1  0.004  0.006  0.003  0.017  0.000  0.000  0.000  0.000  0.000  0.029
  2  0.004  0.006  0.003  0.017  0.000  0.000  0.000  0.000  0.000  0.029
tot  0.009  0.011  0.006  0.033  0.000  0.000  0.000  0.000  0.000  0.059
 
band  28 # energy   40.55449642 # occ.  0.00000000
 
ion      s     py     pz     px    dxy    dyz    dz2    dxz    dx2    tot
  1  0.000  0.010  0.002  0.006  0.000  0.000  0.000  0.000  0.000  0.018
  2  0.000  0.010  0.002  0.006  0.000  0.000  0.000  0.000  0.000  0.018
tot  0.000  0.020  0.005  0.012  0.000  0.000  0.000  0.000  0.000  0.036
 
band  29 # energy   40.55449649 # occ.  0.00000000
 
ion      s     py     pz     px    dxy    dyz    dz2    dxz    dx2    tot
  1  0.000  0.004  0.014  0.000  0.000  0.000  0.000  0.000  0.000  0.018
  2  0.000  0.004  0.014  0.000  0.000  0.000  0.000  0.000  0.000  0.018
tot  0.000  0.008  0.027  0.000  0.000  0.000  0.000  0.000  0.000  0.036
 
band  30 # energy   42.98500665 # occ.  0.00000000
 
ion      s     py     pz     px    dxy    dyz    dz2    dxz    dx2    tot
  1  0.000  0.005  0.002  0.003  0.000  0.000  0.000  0.000  0.000  0.010
  2  0.000  0.005  0.002  0.003  0.000  0.000  0.000  0.000  0.000  0.010
tot  0.000  0.010  0.003  0.007  0.000  0.000  0.000  0.000  0.000  0.020
 
band  31 # energy   42.98500676 # occ.  0.00000000
 
ion      s     py     pz     px    dxy    dyz    dz2    dxz    dx2    tot
  1  0.000  0.003  0.007  0.000  0.000  0.000  0.000  0.000  0.000  0.010
  2  0.000  0.003  0.007  0.000  0.000  0.000  0.000  0.000  0.000  0.010
tot  0.000  0.006  0.015  0.000  0.000  0.000  0.000  0.000  0.000  0.020
 
band  32 # energy   44.84176838 # occ.  0.00000000
 
ion      s     py     pz     px    dxy    dyz    dz2    dxz    dx2    tot
  1  0.000  0.011  0.002  0.006  0.000  0.000  0.000  0.000  0.000  0.019
  2  0.000  0.011  0.002  0.006  0.000  0.000  0.000  0.000  0.000  0.019
tot  0.000  0.022  0.004  0.013  0.000  0.000  0.000  0.000  0.000  0.039
 
band  33 # energy   44.84176842 # occ.  0.00000000
 
ion      s     py     pz     px    dxy    dyz    dz2    dxz    dx2    tot
  1  0.000  0.004  0.015  0.000  0.000  0.000  0.000  0.000  0.000  0.019
  2  0.000  0.004  0.015  0.000  0.000  0.000  0.000  0.000  0.000  0.019
tot  0.000  0.008  0.031  0.000  0.000  0.000  0.000  0.000  0.000  0.039
 
band  34 # energy   45.11874035 # occ.  0.00000000
 
ion      s     py     pz     px    dxy    dyz    dz2    dxz    dx2    tot
  1  0.057  0.009  0.004  0.026  0.000  0.000  0.000  0.000  0.000  0.095
  2  0.057  0.009  0.004  0.026  0.000  0.000  0.000  0.000  0.000  0.095
tot  0.114  0.017  0.009  0.051  0.000  0.000  0.000  0.000  0.000  0.191
 
band  35 # energy   48.11108681 # occ.  0.00000000
 
ion      s     py     pz     px    dxy    dyz    dz2    dxz    dx2    tot
  1  0.000  0.048  0.003  0.012  0.000  0.000  0.000  0.000  0.000  0.063
  2  0.000  0.048  0.003  0.012  0.000  0.000  0.000  0.000  0.000  0.063
tot  0.000  0.095  0.007  0.024  0.000  0.000  0.000  0.000  0.000  0.126
 
band  36 # energy   48.11141655 # occ.  0.00000000
 
ion      s     py     pz     px    dxy    dyz    dz2    dxz    dx2    tot
  1  0.000  0.002  0.051  0.010  0.000  0.000  0.000  0.000  0.000  0.063
  2  0.000  0.002  0.053  0.008  0.000  0.000  0.000  0.000  0.000  0.063
tot  0.000  0.004  0.104  0.018  0.000  0.000  0.000  0.000  0.000  0.126
 

 k-point    2 :    0.37500000 0.12500000 0.12500000     weight = 0.09375000

band   1 # energy   -4.83417549 # occ.  1.00000000
 
ion      s     py     pz     px    dxy    dyz    dz2    dxz    dx2    tot
  1  0.210  0.001  0.000  0.012  0.000  0.000  0.000  0.000  0.000  0.223
  2  0.210  0.001  0.000  0.012  0.000  0.000  0.000  0.000  0.000  0.223
tot  0.420  0.001  0.001  0.023  0.000  0.000  0.000  0.000  0.000  0.445
 
band   2 # energy    1.29115249 # occ.  1.00000000
 
ion      s     py     pz     px    dxy    dyz    dz2    dxz    dx2    tot
  1  0.114  0.026  0.013  0.069  0.000  0.000  0.000  0.000  0.000  0.222
  2  0.114  0.026  0.013  0.069  0.000  0.000  0.000  0.000  0.000  0.222
tot  0.227  0.053  0.026  0.137  0.000  0.000  0.000  0.000  0.000  0.444
 
band   3 # energy    3.60552305 # occ.  1.00000000
 
ion      s     py     pz     px    dxy    dyz    dz2    dxz    dx2    tot
  1  0.025  0.067  0.033  0.070  0.000  0.000  0.000  0.000  0.000  0.195
  2  0.025  0.067  0.033  0.070  0.000  0.000  0.000  0.000  0.000  0.195
tot  0.050  0.134  0.067  0.139  0.000  0.000  0.000  0.000  0.000  0.390
 
band   4 # energy    5.15692848 # occ.  1.00000000
 
ion      s     py     pz     px    dxy    dyz    dz2    dxz    dx2    tot
  1  0.000  0.073  0.147  0.000  0.000  0.000  0.000  0.000  0.000  0.220
  2  0.000  0.073  0.147  0.000  0.000  0.000  0.000  0.000  0.000  0.220
tot  0.000  0.147  0.294  0.000  0.000  0.000  0.000  0.000  0.000  0.441
 
band   5 # energy    8.68991102 # occ.  0.00000000
 
ion      s     py     pz     px    dxy    dyz    dz2    dxz    dx2    tot
  1  0.113  0.050  0.025  0.001  0.000  0.000  0.000  0.000  0.000  0.189
  2  0.113  0.050  0.025  0.001  0.000  0.000  0.000  0.000  0.000  0.189
tot  0.226  0.099  0.050  0.002  0.000  0.000  0.000  0.000  0.000  0.377
 
band   6 # energy    9.62252036 # occ.  0.00000000
 
ion      s     py     pz     px    dxy    dyz    dz2    dxz    dx2    tot
  1  0.000  0.045  0.089  0.000  0.000  0.000  0.000  0.000  0.000  0.134
  2  0.000  0.045  0.089  0.000  0.000  0.000  0.000  0.000  0.000  0.134
tot  0.000  0.089  0.178  0.000  0.000  0.000  0.000  0.000  0.000  0.267
 
band   7 # energy    9.80240771 # occ.  0.00000000
 
ion      s     py     pz     px    dxy    dyz    dz2    dxz    dx2    tot
  1  0.017  0.053  0.027  0.033  0.000  0.000  0.000  0.000  0.000  0.130
  2  0.017  0.053  0.027  0.033  0.000  0.000  0.000  0.000  0.000  0.130
tot  0.035  0.106  0.053  0.065  0.000  0.000  0.000  0.000  0.000  0.259
 
band   8 # energy   12.28149977 # occ.  0.00000000
 
ion      s     py     pz     px    dxy    dyz    dz2    dxz    dx2    tot
  1  0.056  0.025  0.013  0.067  0.000  0.000  0.000  0.000  0.000  0.161
  2  0.056  0.025  0.013  0.067  0.000  0.000  0.000  0.000  0.000  0.161
tot  0.113  0.051  0.025  0.134  0.000  0.000  0.000  0.000  0.000  0.322
 
band   9 # energy   12.40567619 # occ.  0.00000000
 
ion      s     py     pz     px    dxy    dyz    dz2    dxz    dx2    tot
  1  0.000  0.006  0.011  0.000  0.000  0.000  0.000  0.000  0.000  0.017
  2  0.000  0.006  0.011  0.000  0.000  0.000  0.000  0.000  0.000  0.017
tot  0.000  0.011  0.023  0.000  0.000  0.000  0.000  0.000  0.000  0.034
 
band  10 # energy   15.83045103 # occ.  0.00000000
 
ion      s     py     pz     px    dxy    dyz    dz2    dxz    dx2    tot
  1  0.040  0.008  0.004  0.039  0.000  0.000  0.000  0.000  0.000  0.091
  2  0.040  0.008  0.004  0.039  0.000  0.000  0.000  0.000  0.000  0.091
tot  0.079  0.016  0.008  0.078  0.000  0.000  0.000  0.000  0.000  0.182
 
band  11 # energy   16.08065082 # occ.  0.00000000
 
ion      s     py     pz     px    dxy    dyz    dz2    dxz    dx2    tot
  1  0.041  0.014  0.007  0.075  0.000  0.000  0.000  0.000  0.000  0.137
  2  0.041  0.014  0.007  0.075  0.000  0.000  0.000  0.000  0.000  0.137
tot  0.081  0.028  0.014  0.150  0.000  0.000  0.000  0.000  0.000  0.273
 
band  12 # energy   18.44128621 # occ.  0.00000000
 
ion      s     py     pz     px    dxy    dyz    dz2    dxz    dx2    tot
  1  0.018  0.013  0.007  0.069  0.000  0.000  0.000  0.000  0.000  0.106
  2  0.018  0.013  0.007  0.069  0.000  0.000  0.000  0.000  0.000  0.106
tot  0.035  0.027  0.013  0.137  0.000  0.000  0.000  0.000  0.000  0.213
 
band  13 # energy   19.99409476 # occ.  0.00000000
 
ion      s     py     pz     px    dxy    dyz    dz2    dxz    dx2    tot
  1  0.025  0.011  0.005  0.005  0.000  0.000  0.000  0.000  0.000  0.046
  2  0.025  0.011  0.005  0.005  0.000  0.000  0.000  0.000  0.000  0.046
tot  0.050  0.021  0.011  0.010  0.000  0.000  0.000  0.000  0.000  0.092
 
band  14 # energy   21.45161338 # occ.  0.00000000
 
ion      s     py     pz     px    dxy    dyz    dz2    dxz    dx2    tot
  1  0.006  0.002  0.001  0.053  0.000  0.000  0.000  0.000  0.000  0.062
  2  0.006  0.002  0.001  0.053  0.000  0.000  0.000  0.000  0.000  0.062
tot  0.012  0.004  0.002  0.105  0.000  0.000  0.000  0.000  0.000  0.124
 
band  15 # energy   22.41196305 # occ.  0.00000000
 
ion      s     py     pz     px    dxy    dyz    dz2    dxz    dx2    tot
  1  0.000  0.012  0.025  0.000  0.000  0.000  0.000  0.000  0.000  0.037
  2  0.000  0.012  0.025  0.000  0.000  0.000  0.000  0.000  0.000  0.037
tot  0.000  0.025  0.049  0.000  0.000  0.000  0.000  0.000  0.000  0.074
 
band  16 # energy   24.12375552 # occ.  0.00000000
 
ion      s     py     pz     px    dxy    dyz    dz2    dxz    dx2    tot
  1  0.013  0.060  0.030  0.032  0.000  0.000  0.000  0.000  0.000  0.135
  2  0.013  0.060  0.030  0.032  0.000  0.000  0.000  0.000  0.000  0.135
tot  0.027  0.120  0.060  0.063  0.000  0.000  0.000  0.000  0.000  0.270
 
band  17 # energy   24.87668575 # occ.  0.00000000
 
ion      s     py     pz     px    dxy    dyz    dz2    dxz    dx2    tot
  1  0.000  0.015  0.030  0.000  0.000  0.000  0.000  0.000  0.000  0.045
  2  0.000  0.015  0.030  0.000  0.000  0.000  0.000  0.000  0.000  0.045
tot  0.000  0.030  0.060  0.000  0.000  0.000  0.000  0.000  0.000  0.090
 
band  18 # energy   27.82794922 # occ.  0.00000000
 
ion      s     py     pz     px    dxy    dyz    dz2    dxz    dx2    tot
  1  0.015  0.008  0.004  0.022  0.000  0.000  0.000  0.000  0.000  0.048
  2  0.015  0.008  0.004  0.022  0.000  0.000  0.000  0.000  0.000  0.048
tot  0.029  0.015  0.008  0.044  0.000  0.000  0.000  0.000  0.000  0.097
 
band  19 # energy   28.04869708 # occ.  0.00000000
 
ion      s     py     pz     px    dxy    dyz    dz2    dxz    dx2    tot
  1  0.000  0.013  0.026  0.000  0.000  0.000  0.000  0.000  0.000  0.039
  2  0.000  0.013  0.026  0.000  0.000  0.000  0.000  0.000  0.000  0.039
tot  0.000  0.026  0.051  0.000  0.000  0.000  0.000  0.000  0.000  0.077
 
band  20 # energy   29.00421270 # occ.  0.00000000
 
ion      s     py     pz     px    dxy    dyz    dz2    dxz    dx2    tot
  1  0.008  0.022  0.011  0.014  0.000  0.000  0.000  0.000  0.000  0.055
  2  0.008  0.022  0.011  0.014  0.000  0.000  0.000  0.000  0.000  0.055
tot  0.017  0.044  0.022  0.027  0.000  0.000  0.000  0.000  0.000  0.110
 
band  21 # energy   32.18698472 # occ.  0.00000000
 
ion      s     py     pz     px    dxy    dyz    dz2    dxz    dx2    tot
  1  0.010  0.016  0.008  0.025  0.000  0.000  0.000  0.000  0.000  0.060
  2  0.010  0.016  0.008  0.025  0.000  0.000  0.000  0.000  0.000  0.060
tot  0.020  0.033  0.016  0.050  0.000  0.000  0.000  0.000  0.000  0.119
 
band  22 # energy   32.69226765 # occ.  0.00000000
 
ion      s     py     pz     px    dxy    dyz    dz2    dxz    dx2    tot
  1  0.000  0.029  0.059  0.000  0.000  0.000  0.000  0.000  0.000  0.088
  2  0.000  0.029  0.059  0.000  0.000  0.000  0.000  0.000  0.000  0.088
tot  0.000  0.059  0.117  0.000  0.000  0.000  0.000  0.000  0.000  0.176
 
band  23 # energy   33.52594907 # occ.  0.00000000
 
ion      s     py     pz     px    dxy    dyz    dz2    dxz    dx2    tot
  1  0.030  0.014  0.007  0.030  0.000  0.000  0.000  0.000  0.000  0.082
  2  0.030  0.014  0.007  0.030  0.000  0.000  0.000  0.000  0.000  0.082
tot  0.060  0.029  0.014  0.061  0.000  0.000  0.000  0.000  0.000  0.164
 
band  24 # energy   35.61578116 # occ.  0.00000000
 
ion      s     py     pz     px    dxy    dyz    dz2    dxz    dx2    tot
  1  0.000  0.016  0.031  0.000  0.000  0.000  0.000  0.000  0.000  0.047
  2  0.000  0.016  0.031  0.000  0.000  0.000  0.000  0.000  0.000  0.047
tot  0.000  0.031  0.063  0.000  0.000  0.000  0.000  0.000  0.000  0.094
 
band  25 # energy   35.84099655 # occ.  0.00000000
 
ion      s     py     pz     px    dxy    dyz    dz2    dxz    dx2    tot
  1  0.011  0.010  0.005  0.022  0.000  0.000  0.000  0.000  0.000  0.048
  2  0.011  0.010  0.005  0.022  0.000  0.000  0.000  0.000  0.000  0.048
tot  0.022  0.021  0.010  0.043  0.000  0.000  0.000  0.000  0.000  0.096
 
band  26 # energy   37.13850576 # occ.  0.00000000
 
ion      s     py     pz     px    dxy    dyz    dz2    dxz    dx2    tot
  1  0.007  0.033  0.016  0.013  0.000  0.000  0.000  0.000  0.000  0.069
  2  0.007  0.033  0.016  0.013  0.000  0.000  0.000  0.000  0.000  0.069
tot  0.013  0.065  0.033  0.027  0.000  0.000  0.000  0.000  0.000  0.138
 
band  27 # energy   37.24199909 # occ.  0.00000000
 
ion      s     py     pz     px    dxy    dyz    dz2    dxz    dx2    tot
  1  0.000  0.008  0.015  0.000  0.000  0.000  0.000  0.000  0.000  0.023
  2  0.000  0.008  0.015  0.000  0.000  0.000  0.000  0.000  0.000  0.023
tot  0.000  0.015  0.030  0.000  0.000  0.000  0.000  0.000  0.000  0.045
 
band  28 # energy   38.35155962 # occ.  0.00000000
 
ion      s     py     pz     px    dxy    dyz    dz2    dxz    dx2    tot
  1  0.007  0.010  0.005  0.008  0.000  0.000  0.000  0.000  0.000  0.029
  2  0.007  0.010  0.005  0.008  0.000  0.000  0.000  0.000  0.000  0.029
tot  0.014  0.019  0.010  0.016  0.000  0.000  0.000  0.000  0.000  0.058
 
band  29 # energy   39.32113593 # occ.  0.00000000
 
ion      s     py     pz     px    dxy    dyz    dz2    dxz    dx2    tot
  1  0.000  0.009  0.017  0.000  0.000  0.000  0.000  0.000  0.000  0.026
  2  0.000  0.009  0.017  0.000  0.000  0.000  0.000  0.000  0.000  0.026
tot  0.000  0.017  0.034  0.000  0.000  0.000  0.000  0.000  0.000  0.052
 
band  30 # energy   40.43008837 # occ.  0.00000000
 
ion      s     py     pz     px    dxy    dyz    dz2    dxz    dx2    tot
  1  0.000  0.005  0.010  0.000  0.000  0.000  0.000  0.000  0.000  0.015
  2  0.000  0.005  0.010  0.000  0.000  0.000  0.000  0.000  0.000  0.015
tot  0.000  0.010  0.019  0.000  0.000  0.000  0.000  0.000  0.000  0.029
 
band  31 # energy   40.73527646 # occ.  0.00000000
 
ion      s     py     pz     px    dxy    dyz    dz2    dxz    dx2    tot
  1  0.002  0.001  0.000  0.013  0.000  0.000  0.000  0.000  0.000  0.016
  2  0.002  0.001  0.000  0.013  0.000  0.000  0.000  0.000  0.000  0.016
tot  0.004  0.002  0.001  0.026  0.000  0.000  0.000  0.000  0.000  0.032
 
band  32 # energy   43.27833794 # occ.  0.00000000
 
ion      s     py     pz     px    dxy    dyz    dz2    dxz    dx2    tot
  1  0.000  0.005  0.009  0.000  0.000  0.000  0.000  0.000  0.000  0.014
  2  0.000  0.005  0.009  0.000  0.000  0.000  0.000  0.000  0.000  0.014
tot  0.000  0.009  0.018  0.000  0.000  0.000  0.000  0.000  0.000  0.028
 
band  33 # energy   43.84894489 # occ.  0.00000000
 
ion      s     py     pz     px    dxy    dyz    dz2    dxz    dx2    tot
  1  0.004  0.015  0.008  0.010  0.000  0.000  0.000  0.000  0.000  0.036
  2  0.004  0.015  0.008  0.010  0.000  0.000  0.000  0.000  0.000  0.036
tot  0.008  0.031  0.015  0.019  0.000  0.000  0.000  0.000  0.000  0.073
 
band  34 # energy   44.70549174 # occ.  0.00000000
 
ion      s     py     pz     px    dxy    dyz    dz2    dxz    dx2    tot
  1  0.000  0.010  0.020  0.000  0.000  0.000  0.000  0.000  0.000  0.030
  2  0.000  0.010  0.020  0.000  0.000  0.000  0.000  0.000  0.000  0.030
tot  0.000  0.020  0.039  0.000  0.000  0.000  0.000  0.000  0.000  0.059
 
band  35 # energy   44.92848035 # occ.  0.00000000
 
ion      s     py     pz     px    dxy    dyz    dz2    dxz    dx2    tot
  1  0.002  0.006  0.003  0.016  0.000  0.000  0.000  0.000  0.000  0.026
  2  0.002  0.006  0.003  0.016  0.000  0.000  0.000  0.000  0.000  0.026
tot  0.004  0.011  0.006  0.031  0.000  0.000  0.000  0.000  0.000  0.052
 
band  36 # energy   46.06293153 # occ.  0.00000000
 
ion      s     py     pz     px    dxy    dyz    dz2    dxz    dx2    tot
  1  0.013  0.011  0.005  0.028  0.000  0.000  0.000  0.000  0.000  0.057
  2  0.013  0.011  0.005  0.028  0.000  0.000  0.000  0.000  0.000  0.057
tot  0.025  0.021  0.011  0.057  0.000  0.000  0.000  0.000  0.000  0.114
 

 k-point    3 :   -0.37500000 0.12500000 0.12500000     weight = 0.09375000

band   1 # energy   -3.65155997 # occ.  1.00000000
 
ion      s     py     pz     px    dxy    dyz    dz2    dxz    dx2    tot
  1  0.221  0.006  0.003  0.008  0.000  0.000  0.000  0.000  0.000  0.238
  2  0.221  0.006  0.003  0.008  0.000  0.000  0.000  0.000  0.000  0.238
tot  0.442  0.013  0.006  0.016  0.000  0.000  0.000  0.000  0.000  0.476
 
band   2 # energy   -0.85456866 # occ.  1.00000000
 
ion      s     py     pz     px    dxy    dyz    dz2    dxz    dx2    tot
  1  0.109  0.020  0.010  0.062  0.000  0.000  0.000  0.000  0.000  0.201
  2  0.109  0.020  0.010  0.062  0.000  0.000  0.000  0.000  0.000  0.201
tot  0.219  0.040  0.020  0.123  0.000  0.000  0.000  0.000  0.000  0.403
 
band   3 # energy    3.64172980 # occ.  1.00000000
 
ion      s     py     pz     px    dxy    dyz    dz2    dxz    dx2    tot
  1  0.039  0.069  0.035  0.064  0.000  0.000  0.000  0.000  0.000  0.207
  2  0.039  0.069  0.035  0.064  0.000  0.000  0.000  0.000  0.000  0.207
tot  0.078  0.139  0.069  0.128  0.000  0.000  0.000  0.000  0.000  0.413
 
band   4 # energy    4.36073235 # occ.  1.00000000
 
ion      s     py     pz     px    dxy    dyz    dz2    dxz    dx2    tot
  1  0.000  0.070  0.141  0.000  0.000  0.000  0.000  0.000  0.000  0.211
  2  0.000  0.070  0.141  0.000  0.000  0.000  0.000  0.000  0.000  0.211
tot  0.000  0.141  0.282  0.000  0.000  0.000  0.000  0.000  0.000  0.423
 
band   5 # energy    8.14572546 # occ.  0.00000000
 
ion      s     py     pz     px    dxy    dyz    dz2    dxz    dx2    tot
  1  0.091  0.037  0.018  0.005  0.000  0.000  0.000  0.000  0.000  0.151
  2  0.091  0.037  0.018  0.005  0.000  0.000  0.000  0.000  0.000  0.151
tot  0.183  0.073  0.037  0.010  0.000  0.000  0.000  0.000  0.000  0.303
 
band   6 # energy    9.46574959 # occ.  0.00000000
 
ion      s     py     pz     px    dxy    dyz    dz2    dxz    dx2    tot
  1  0.047  0.023  0.012  0.056  0.000  0.000  0.000  0.000  0.000  0.138
  2  0.047  0.023  0.012  0.056  0.000  0.000  0.000  0.000  0.000  0.138
tot  0.095  0.047  0.023  0.112  0.000  0.000  0.000  0.000  0.000  0.277
 
band   7 # energy   10.03934973 # occ.  0.00000000
 
ion      s     py     pz     px    dxy    dyz    dz2    dxz    dx2    tot
  1  0.000  0.034  0.068  0.000  0.000  0.000  0.000  0.000  0.000  0.102
  2  0.000  0.034  0.068  0.000  0.000  0.000  0.000  0.000  0.000  0.102
tot  0.000  0.068  0.137  0.000  0.000  0.000  0.000  0.000  0.000  0.205
 
band   8 # energy   13.33991603 # occ.  0.00000000
 
ion      s     py     pz     px    dxy    dyz    dz2    dxz    dx2    tot
  1  0.011  0.017  0.009  0.080  0.000  0.000  0.000  0.000  0.000  0.117
  2  0.011  0.017  0.009  0.080  0.000  0.000  0.000  0.000  0.000  0.117
tot  0.022  0.034  0.017  0.160  0.000  0.000  0.000  0.000  0.000  0.234
 
band   9 # energy   14.95886798 # occ.  0.00000000
 
ion      s     py     pz     px    dxy    dyz    dz2    dxz    dx2    tot
  1  0.009  0.018  0.009  0.024  0.000  0.000  0.000  0.000  0.000  0.060
  2  0.009  0.018  0.009  0.024  0.000  0.000  0.000  0.000  0.000  0.060
tot  0.017  0.037  0.018  0.048  0.000  0.000  0.000  0.000  0.000  0.120
 
band  10 # energy   16.45025160 # occ.  0.00000000
 
ion      s     py     pz     px    dxy    dyz    dz2    dxz    dx2    tot
  1  0.000  0.008  0.016  0.000  0.000  0.000  0.000  0.000  0.000  0.024
  2  0.000  0.008  0.016  0.000  0.000  0.000  0.000  0.000  0.000  0.024
tot  0.000  0.016  0.032  0.000  0.000  0.000  0.000  0.000  0.000  0.048
 
band  11 # energy   17.55393463 # occ.  0.00000000
 
ion      s     py     pz     px    dxy    dyz    dz2    dxz    dx2    tot
  1  0.027  0.062  0.031  0.016  0.000  0.000  0.000  0.000  0.000  0.136
  2  0.027  0.062  0.031  0.016  0.000  0.000  0.000  0.000  0.000  0.136
tot  0.054  0.123  0.062  0.032  0.000  0.000  0.000  0.000  0.000  0.271
 
band  12 # energy   17.64904572 # occ.  0.00000000
 
ion      s     py     pz     px    dxy    dyz    dz2    dxz    dx2    tot
  1  0.000  0.030  0.061  0.000  0.000  0.000  0.000  0.000  0.000  0.091
  2  0.000  0.030  0.061  0.000  0.000  0.000  0.000  0.000  0.000  0.091
tot  0.000  0.061  0.121  0.000  0.000  0.000  0.000  0.000  0.000  0.182
 
band  13 # energy   18.58505886 # occ.  0.00000000
 
ion      s     py     pz     px    dxy    dyz    dz2    dxz    dx2    tot