<?xml version="1.0" encoding="ISO-8859-1"?>
<modeling>
 <generator>
  <i name="program" type="string">vasp </i>
  <i name="version" type="string">5.4.1  </i>
  <i name="subversion" type="string">05Feb16 (build Apr 16 2019 13:49:49) complex                          parallel </i>
  <i name="platform" type="string">IFC91_ompi </i>
  <i name="date" type="string">2019 07 24 </i>
  <i name="time" type="string">08:38:43 </i>
 </generator>
 <incar>
  <i type="int" name="ISTART">     0</i>
  <i type="string" name="PREC">accurate</i>
  <i type="string" name="ALGO"> Fast</i>
  <i type="int" name="ISPIN">     2</i>
  <i type="int" name="ICHARG">     2</i>
  <i type="int" name="IBRION">     2</i>
  <i name="EDIFF">      0.00001000</i>
  <i name="EDIFFG">     -0.01000000</i>
  <i type="int" name="NSW">   100</i>
  <i type="int" name="ISIF">     3</i>
  <i name="ENCUT">    520.00000000</i>
  <v name="MAGMOM">      0.60000000      0.60000000</v>
  <i type="string" name="LREAL"> Auto</i>
  <i type="int" name="ISMEAR">    -5</i>
  <i name="SIGMA">      0.05000000</i>
  <i type="logical" name="LWAVE"> F  </i>
  <i type="logical" name="LCHARG"> F  </i>
  <i type="logical" name="LORBIT"> F  </i>
  <v type="int" name="KPOINT_BSE">    -1     0     0     0</v>
 </incar>
 <kpoints>
  <generation param="Monkhorst-Pack">
   <v type="int" name="divisions">       4        4        4 </v>
   <v name="usershift">      0.00000000       0.00000000       0.00000000 </v>
   <v name="genvec1">      0.25000000       0.00000000       0.00000000 </v>
   <v name="genvec2">      0.00000000       0.25000000       0.00000000 </v>
   <v name="genvec3">      0.00000000       0.00000000       0.25000000 </v>
   <v name="shift">      0.50000000       0.50000000       0.50000000 </v>
  </generation>
  <varray name="kpointlist" >
   <v>       0.12500000       0.12500000       0.12500000 </v>
   <v>       0.37500000       0.12500000       0.12500000 </v>
   <v>      -0.37500000       0.12500000       0.12500000 </v>
   <v>      -0.12500000       0.12500000       0.12500000 </v>
   <v>       0.37500000       0.37500000       0.12500000 </v>
   <v>      -0.37500000       0.37500000       0.12500000 </v>
   <v>      -0.12500000       0.37500000       0.12500000 </v>
   <v>      -0.37500000      -0.37500000       0.12500000 </v>
   <v>       0.37500000       0.37500000       0.37500000 </v>
   <v>      -0.37500000       0.37500000       0.37500000 </v>
  </varray>
  <varray name="weights" >
   <v>       0.03125000 </v>
   <v>       0.09375000 </v>
   <v>       0.09375000 </v>
   <v>       0.09375000 </v>
   <v>       0.09375000 </v>
   <v>       0.18750000 </v>
   <v>       0.18750000 </v>
   <v>       0.09375000 </v>
   <v>       0.03125000 </v>
   <v>       0.09375000 </v>
  </varray>
  <varray name="tetrahedronlist"  type="int" >
   <v type="int" >       24        1        2        4        9 </v>
   <v type="int" >       24        2        3        4        7 </v>
   <v type="int" >       24        3        4        5        7 </v>
   <v type="int" >       24        2        3        4        9 </v>
   <v type="int" >       24        5        6        7       10 </v>
   <v type="int" >       24        5        6        8       10 </v>
   <v type="int" >       24        3        5        7       10 </v>
   <v type="int" >       24        6        6        8       10 </v>
   <v type="int" >       24        6        8        8       10 </v>
   <v type="int" >       24        6        8       10       10 </v>
   <v type="int" >       24        3        6        7        8 </v>
   <v type="int" >       24        3        5        7        8 </v>
   <v type="int" >       24        3        6        8       10 </v>
   <v type="int" >       24        2        5        7        9 </v>
   <v type="int" >       24        2        4        5        9 </v>
   <v type="int" >       24        3        5        7        9 </v>
   <v type="int" >       36        2        2        4        4 </v>
   <v type="int" >       48        1        2        4        4 </v>
   <v type="int" >       24        2        2        4        9 </v>
   <v type="int" >       24        1        1        2        4 </v>
   <v type="int" >       24        1        2        2        4 </v>
   <v type="int" >       24        2        3        7       10 </v>
   <v type="int" >       24        2        3        3        7 </v>
   <v type="int" >       24        2        3        3        9 </v>
   <v type="int" >       72        6        7        7       10 </v>
   <v type="int" >       36        6        6        7        7 </v>
   <v type="int" >       48        3        7        7       10 </v>
   <v type="int" >       12        3        3        7        7 </v>
   <v type="int" >       48        6        6        6        7 </v>
   <v type="int" >       72        6        6        7       10 </v>
   <v type="int" >       72        6        7       10       10 </v>
   <v type="int" >       24        3        6        6       10 </v>
   <v type="int" >       72        3        6        7       10 </v>
   <v type="int" >       24        3        3        6        7 </v>
   <v type="int" >       24        3        6        6        7 </v>
   <v type="int" >       24        3        3        6       10 </v>
   <v type="int" >       48        2        3        7        7 </v>
   <v type="int" >       48        2        3        7        9 </v>
   <v type="int" >       24        3        3        7       10 </v>
   <v type="int" >       24        3        3        3        7 </v>
   <v type="int" >       24        3        3        7        9 </v>
   <v type="int" >       48        2        5        7        7 </v>
   <v type="int" >       24        2        4        5        7 </v>
   <v type="int" >       48        2        2        4        7 </v>
   <v type="int" >       24        2        2        7        9 </v>
   <v type="int" >       24        4        5        5        7 </v>
   <v type="int" >       24        4        4        5        7 </v>
   <v type="int" >       24        2        4        4        7 </v>
   <v type="int" >       24        4        5        7        7 </v>
   <v type="int" >       24        2        4        7        7 </v>
   <v type="int" >       24        5        6        8        8 </v>
   <v type="int" >       24        5        6        6        8 </v>
   <v type="int" >       24        5        6        6        7 </v>
   <v type="int" >       24        5        5        6        8 </v>
   <v type="int" >       24        5        5        6        7 </v>
   <v type="int" >       48        5        6        7        7 </v>
   <v type="int" >       48        6        6        7        8 </v>
   <v type="int" >       24        5        6        7        8 </v>
   <v type="int" >       24        3        6        7        7 </v>
   <v type="int" >       48        6        6       10       10 </v>
   <v type="int" >       24        3        7       10       10 </v>
   <v type="int" >       12        3        3       10       10 </v>
   <v type="int" >       24        5        8        8        8 </v>
   <v type="int" >       24        5        5        8        8 </v>
   <v type="int" >       24        5        5        5        8 </v>
   <v type="int" >       24        6        7        8        8 </v>
   <v type="int" >       24        6        7        7        8 </v>
   <v type="int" >       24        5        7        8        8 </v>
   <v type="int" >       24        5        5        7        8 </v>
   <v type="int" >       24        5        7        7        8 </v>
   <v type="int" >       72        6        6        6       10 </v>
   <v type="int" >       72        6        6        6        8 </v>
   <v type="int" >       60        6        6        8        8 </v>
   <v type="int" >       48        6        8        8        8 </v>
   <v type="int" >       24        2        7        9       10 </v>
   <v type="int" >       24        3        7        9       10 </v>
   <v type="int" >       24        3        3        9       10 </v>
   <v type="int" >       24        2        4        4        5 </v>
   <v type="int" >       24        2        4        5        5 </v>
   <v type="int" >       24        2        5        5        7 </v>
   <v type="int" >       24        2        2        4        5 </v>
   <v type="int" >       24        2        2        5        7 </v>
   <v type="int" >       36        1        1        4        4 </v>
   <v type="int" >       48        1        4        4        4 </v>
   <v type="int" >       24        2        4        4        4 </v>
   <v type="int" >       24        1        1        1        4 </v>
   <v type="int" >       12        3        3        9        9 </v>
   <v type="int" >       24        2        7        7       10 </v>
   <v type="int" >       24        2        7       10       10 </v>
   <v type="int" >       24        2        2        7       10 </v>
   <v type="int" >       12        3        3        3        3 </v>
   <v type="int" >       24        3        3        3        9 </v>
   <v type="int" >       24        4        5        5        5 </v>
   <v type="int" >       24        4        4        5        5 </v>
   <v type="int" >       24        4        4        4        5 </v>
   <v type="int" >       24        7        7        7       10 </v>
   <v type="int" >       12        7        7       10       10 </v>
   <v type="int" >       24        2        7        7        7 </v>
   <v type="int" >       12        2        2        7        7 </v>
   <v type="int" >       72        6        6        6        6 </v>
   <v type="int" >       12        1        1        1        1 </v>
   <v type="int" >       36        8        8        8        8 </v>
  </varray>
  <i name="volumeweight">      0.00032552 </i>
 </kpoints>
 <parameters>
  <separator name="general" >
   <i type="string" name="SYSTEM">unknown system</i>
   <i type="logical" name="LCOMPAT"> F  </i>
  </separator>
  <separator name="electronic" >
   <i type="string" name="PREC">accura</i>
   <i name="ENMAX">    520.00000000</i>
   <i name="ENAUG">    322.06900000</i>
   <i name="EDIFF">      0.00001000</i>
   <i type="int" name="IALGO">    68</i>
   <i type="int" name="IWAVPR">    11</i>
   <i type="int" name="NBANDS">    36</i>
   <i name="NELECT">      8.00000000</i>
   <i type="int" name="TURBO">     0</i>
   <i type="int" name="IRESTART">     0</i>
   <i type="int" name="NREBOOT">     0</i>
   <i type="int" name="NMIN">     0</i>
   <i name="EREF">      0.00000000</i>
   <separator name="electronic smearing" >
    <i type="int" name="ISMEAR">    -5</i>
    <i name="SIGMA">      0.05000000</i>
    <i name="KSPACING">      0.50000000</i>
    <i type="logical" name="KGAMMA"> T  </i>
   </separator>
   <separator name="electronic projectors" >
    <i type="logical" name="LREAL"> T  </i>
    <v name="ROPT">     -0.00025000</v>
    <i type="int" name="LMAXPAW">  -100</i>
    <i type="int" name="LMAXMIX">     2</i>
    <i type="logical" name="NLSPLINE"> F  </i>
   </separator>
   <separator name="electronic startup" >
    <i type="int" name="ISTART">     0</i>
    <i type="int" name="ICHARG">     2</i>
    <i type="int" name="INIWAV">     1</i>
   </separator>
   <separator name="electronic spin" >
    <i type="int" name="ISPIN">     2</i>
    <i type="logical" name="LNONCOLLINEAR"> F  </i>
    <v name="MAGMOM">      0.60000000      0.60000000</v>
    <i name="NUPDOWN">     -1.00000000</i>
    <i type="logical" name="LSORBIT"> F  </i>
    <v name="SAXIS">      0.00000000      0.00000000      1.00000000</v>
    <i type="logical" name="LSPIRAL"> F  </i>
    <v name="QSPIRAL">      0.00000000      0.00000000      0.00000000</v>
    <i type="logical" name="LZEROZ"> F  </i>
   </separator>
   <separator name="electronic exchange-correlation" >
    <i type="logical" name="LASPH"> F  </i>
    <i type="logical" name="LMETAGGA"> F  </i>
   </separator>
   <separator name="electronic convergence" >
    <i type="int" name="NELM">    60</i>
    <i type="int" name="NELMDL">    -5</i>
    <i type="int" name="NELMIN">     2</i>
    <i name="ENINI">    520.00000000</i>
    <separator name="electronic convergence detail" >
     <i type="logical" name="LDIAG"> T  </i>
     <i type="logical" name="LSUBROT"> F  </i>
     <i name="WEIMIN">      0.00100000</i>
     <i name="EBREAK">      0.00000007</i>
     <i name="DEPER">      0.30000000</i>
     <i type="int" name="NRMM">     4</i>
     <i name="TIME">      0.40000000</i>
    </separator>
   </separator>
   <separator name="electronic mixer" >
    <i name="AMIX">      0.40000000</i>
    <i name="BMIX">      1.00000000</i>
    <i name="AMIN">      0.10000000</i>
    <i name="AMIX_MAG">      1.60000000</i>
    <i name="BMIX_MAG">      1.00000000</i>
    <separator name="electronic mixer details" >
     <i type="int" name="IMIX">     4</i>
     <i type="logical" name="MIXFIRST"> F  </i>
     <i type="int" name="MAXMIX">   -45</i>
     <i name="WC">    100.00000000</i>
     <i type="int" name="INIMIX">     1</i>
     <i type="int" name="MIXPRE">     1</i>
     <i type="int" name="MREMOVE">     5</i>
    </separator>
   </separator>
   <separator name="electronic dipolcorrection" >
    <i type="logical" name="LDIPOL"> F  </i>
    <i type="logical" name="LMONO"> F  </i>
    <i type="int" name="IDIPOL">     0</i>
    <i name="EPSILON">      1.00000000</i>
    <v name="DIPOL">   -100.00000000   -100.00000000   -100.00000000</v>
    <i name="EFIELD">      0.00000000</i>
   </separator>
  </separator>
  <separator name="grids" >
   <i type="int" name="NGX">    30</i>
   <i type="int" name="NGY">    30</i>
   <i type="int" name="NGZ">    30</i>
   <i type="int" name="NGXF">    60</i>
   <i type="int" name="NGYF">    60</i>
   <i type="int" name="NGZF">    60</i>
   <i type="logical" name="ADDGRID"> F  </i>
  </separator>
  <separator name="ionic" >
   <i type="int" name="NSW">   100</i>
   <i type="int" name="IBRION">     2</i>
   <i type="int" name="ISIF">     3</i>
   <i name="PSTRESS">      0.00000000</i>
   <i name="EDIFFG">     -0.01000000</i>
   <i type="int" name="NFREE">     1</i>
   <i name="POTIM">      0.50000000</i>
   <i name="SMASS">     -3.00000000</i>
   <i name="SCALEE">      1.00000000</i>
  </separator>
  <separator name="ionic md" >
   <i name="TEBEG">      0.00010000</i>
   <i name="TEEND">      0.00010000</i>
   <i type="int" name="NBLOCK">     1</i>
   <i type="int" name="KBLOCK">   100</i>
   <i type="int" name="NPACO">   256</i>
   <i name="APACO">     16.00000000</i>
  </separator>
  <separator name="symmetry" >
   <i type="int" name="ISYM">     2</i>
   <i name="SYMPREC">      0.00001000</i>
  </separator>
  <separator name="dos" >
   <i type="logical" name="LORBIT"> F  </i>
   <v name="RWIGS">     -1.00000000</v>
   <i type="int" name="NEDOS">   301</i>
   <i name="EMIN">     10.00000000</i>
   <i name="EMAX">    -10.00000000</i>
   <i name="EFERMI">      0.00000000</i>
  </separator>
  <separator name="writing" >
   <i type="int" name="NWRITE">     2</i>
   <i type="logical" name="LWAVE"> F  </i>
   <i type="logical" name="LCHARG"> F  </i>
   <i type="logical" name="LPARD"> F  </i>
   <i type="logical" name="LVTOT"> F  </i>
   <i type="logical" name="LVHAR"> F  </i>
   <i type="logical" name="LELF"> F  </i>
   <i type="logical" name="LOPTICS"> F  </i>
   <v name="STM">      0.00000000      0.00000000      0.00000000      0.00000000      0.00000000      0.00000000      0.00000000</v>
  </separator>
  <separator name="performance" >
   <i type="int" name="NPAR">    36</i>
   <i type="int" name="NSIM">     4</i>
   <i type="int" name="NBLK">    -1</i>
   <i type="logical" name="LPLANE"> T  </i>
   <i type="logical" name="LSCALAPACK"> T  </i>
   <i type="logical" name="LSCAAWARE"> T  </i>
   <i type="logical" name="LSCALU"> F  </i>
   <i type="logical" name="LASYNC"> F  </i>
   <i type="logical" name="LORBITALREAL"> F  </i>
  </separator>
  <separator name="miscellaneous" >
   <i type="int" name="IDIOT">     3</i>
   <i type="logical" name="LMUSIC"> F  </i>
   <v name="POMASS">     28.08500000</v>
   <v name="DARWINR">      0.00000000</v>
   <v name="DARWINV">      1.00000000</v>
   <i type="logical" name="LCORR"> T  </i>
  </separator>
  <i type="logical" name="GGA_COMPAT"> T  </i>
  <i type="logical" name="LBERRY"> F  </i>
  <i type="int" name="ICORELEVEL">     0</i>
  <i type="logical" name="LDAU"> F  </i>
  <i type="int" name="I_CONSTRAINED_M">     0</i>
  <separator name="electronic exchange-correlation" >
   <i type="string" name="GGA">--</i>
   <i type="int" name="VOSKOWN">     0</i>
   <i type="logical" name="LHFCALC"> F  </i>
   <i type="string" name="PRECFOCK"></i>
   <i type="logical" name="LSYMGRAD"> F  </i>
   <i type="logical" name="LHFONE"> F  </i>
   <i type="logical" name="LRHFCALC"> F  </i>
   <i type="logical" name="LTHOMAS"> F  </i>
   <i type="logical" name="LMODELHF"> F  </i>
   <i name="ENCUT4O">     -1.00000000</i>
   <i type="int" name="EXXOEP">     0</i>
   <i type="int" name="FOURORBIT">     0</i>
   <i name="AEXX">      0.00000000</i>
   <i name="HFALPHA">      0.00000000</i>
   <i name="MCALPHA">      0.00000000</i>
   <i name="ALDAX">      1.00000000</i>
   <i name="AGGAX">      1.00000000</i>
   <i name="ALDAC">      1.00000000</i>
   <i name="AGGAC">      1.00000000</i>
   <i type="int" name="NKREDX">     1</i>
   <i type="int" name="NKREDY">     1</i>
   <i type="int" name="NKREDZ">     1</i>
   <i type="logical" name="SHIFTRED"> F  </i>
   <i type="logical" name="ODDONLY"> F  </i>
   <i type="logical" name="EVENONLY"> F  </i>
   <i type="int" name="LMAXFOCK">     0</i>
   <i type="int" name="NMAXFOCKAE">     0</i>
   <i type="logical" name="LFOCKAEDFT"> F  </i>
   <i name="HFSCREEN">      0.00000000</i>
   <i name="HFSCREENC">      0.00000000</i>
   <i type="int" name="NBANDSGWLOW">     0</i>
  </separator>
  <separator name="vdW DFT" >
   <i type="logical" name="LUSE_VDW"> F  </i>
   <i name="Zab_VDW">     -0.84910000</i>
   <i name="PARAM1">      0.12340000</i>
   <i name="PARAM2">      1.00000000</i>
   <i name="PARAM3">      0.00000000</i>
  </separator>
  <separator name="model GW" >
   <i type="int" name="MODEL_GW">     0</i>
   <i name="MODEL_EPS0">     12.26648727</i>
   <i name="MODEL_ALPHA">      1.00000000</i>
  </separator>
  <separator name="linear response parameters" >
   <i type="logical" name="LEPSILON"> F  </i>
   <i type="logical" name="LRPA"> F  </i>
   <i type="logical" name="LNABLA"> F  </i>
   <i type="logical" name="LVEL"> F  </i>
   <i type="int" name="KINTER">     0</i>
   <i name="CSHIFT">      0.10000000</i>
   <i name="OMEGAMAX">     -1.00000000</i>
   <i name="DEG_THRESHOLD">      0.00200000</i>
  </separator>
  <separator name="orbital magnetization" >
   <i type="logical" name="NUCIND"> F  </i>
   <v name="MAGPOS">      0.00000000      0.00000000      0.00000000</v>
   <i type="logical" name="LNICSALL"> T  </i>
   <i type="logical" name="ORBITALMAG"> F  </i>
   <i type="logical" name="LMAGBLOCH"> F  </i>
   <i type="logical" name="LCHIMAG"> F  </i>
   <i type="logical" name="LGAUGE"> T  </i>
   <i type="int" name="MAGATOM">     0</i>
   <v name="MAGDIPOL">      0.00000000      0.00000000      0.00000000</v>
   <v name="AVECCONST">      0.00000000      0.00000000      0.00000000</v>
  </separator>
  <separator name="response functions" >
   <i type="logical" name="LADDER"> F  </i>
   <i type="logical" name="LFXC"> F  </i>
   <i type="logical" name="LHARTREE"> T  </i>
   <i type="int" name="IBSE">     0</i>
   <v type="int" name="KPOINT">    -1     0     0     0</v>
   <i type="logical" name="LTCTE"> F  </i>
   <i type="logical" name="LTETE"> F  </i>
   <i type="logical" name="LTRIPLET"> F  </i>
   <i type="logical" name="LFXCEPS"> F  </i>
   <i type="logical" name="LFXHEG"> F  </i>
   <i type="int" name="NATURALO">     0</i>
   <i type="logical" name="L2ORDER"> F  </i>
   <i type="logical" name="LUSEW"> F  </i>
   <i name="ENCUTGW">     -2.00000000</i>
   <i name="ENCUTGWSOFT">     -2.00000000</i>
   <i name="ENCUTLF">     -1.00000000</i>
   <i type="int" name="LMAXMP2">    -1</i>
   <i name="SCISSOR">      0.00000000</i>
   <i type="int" name="NOMEGA">     0</i>
   <i type="int" name="NOMEGAR">     0</i>
   <i type="int" name="NBANDSGW">    -1</i>
   <i type="int" name="NBANDSO">    -1</i>
   <i type="int" name="NBANDSV">    -1</i>
   <i type="int" name="NELM">     1</i>
   <i type="int" name="NELMHF">     1</i>
   <i type="int" name="DIM">     3</i>
   <i type="int" name="ANTIRES">     0</i>
   <i name="OMEGAMAX">    -30.00000000</i>
   <i name="OMEGAMIN">    -30.00000000</i>
   <i name="OMEGATL">   -200.00000000</i>
   <i type="int" name="OMEGAGRID">     0</i>
   <i name="CSHIFT">     -0.10000000</i>
   <i type="logical" name="SELFENERGY"> F  </i>
   <i type="logical" name="LSPECTRAL"> F  </i>
   <i type="logical" name="LSPECTRALGW"> F  </i>
   <i type="logical" name="LSINGLES"> F  </i>
   <i type="logical" name="LFERMIGW"> F  </i>
   <i type="logical" name="ODDONLYGW"> F  </i>
   <i type="logical" name="EVENONLYGW"> F  </i>
   <i type="int" name="NKREDLFX">     1</i>
   <i type="int" name="NKREDLFY">     1</i>
   <i type="int" name="NKREDLFZ">     1</i>
   <i type="int" name="MAXMEM">  1800</i>
   <i type="int" name="TELESCOPE">     0</i>
   <i type="int" name="TAUPAR">     1</i>
   <i type="int" name="OMEGAPAR">    -1</i>
   <i name="LAMBDA">      1.00000000</i>
  </separator>
  <separator name="External order field" >
   <i name="OFIELD_KAPPA">      0.00000000</i>
   <v name="OFIELD_K">      0.00000000      0.00000000      0.00000000</v>
   <i name="OFIELD_Q6_NEAR">      0.00000000</i>
   <i name="OFIELD_Q6_FAR">      0.00000000</i>
   <i name="OFIELD_A">      0.00000000</i>
  </separator>
 </parameters>
 <atominfo>
  <atoms>       2 </atoms>
  <types>       1 </types>
  <array name="atoms" >
   <dimension dim="1">ion</dimension>
   <field type="string">element</field>
   <field type="int">atomtype</field>
   <set>
    <rc><c>Si</c><c>   1</c></rc>
    <rc><c>Si</c><c>   1</c></rc>
   </set>
  </array>
  <array name="atomtypes" >
   <dimension dim="1">type</dimension>
   <field type="int">atomspertype</field>
   <field type="string">element</field>
   <field>mass</field>
   <field>valence</field>
   <field type="string">pseudopotential</field>
   <set>
    <rc><c>   2</c><c>Si</c><c>     28.08500000</c><c>      4.00000000</c><c>  PAW_PBE Si 05Jan2001                  </c></rc>
   </set>
  </array>
 </atominfo>
 <structure name="initialpos" >
  <crystal>
   <varray name="basis" >
    <v>       3.86697459       0.00000000       0.00000000 </v>
    <v>       1.93348730       3.34889823       0.00000000 </v>
    <v>       1.93348730       1.11629941       3.15737153 </v>
   </varray>
   <i name="volume">     40.88829091 </i>
   <varray name="rec_basis" >
    <v>       0.25860010      -0.14930283      -0.10557305 </v>
    <v>       0.00000000       0.29860567      -0.10557305 </v>
    <v>       0.00000000       0.00000000       0.31671914 </v>
   </varray>
  </crystal>
  <varray name="positions" >
   <v>       0.74999998       0.74999998       0.75000000 </v>
   <v>       0.50000001       0.49999999       0.50000000 </v>
  </varray>
 </structure>
 <calculation>
  <scstep>
   <time name="dav">    0.29    0.34</time>
   <time name="total">    0.32    0.39</time>
   <energy>
    <i name="alphaZ">      3.29318052 </i>
    <i name="ewald">   -226.94490564 </i>
    <i name="hartreedc">    -11.32338836 </i>
    <i name="XCdc">    -18.60569876 </i>
    <i name="pawpsdc">    176.18363791 </i>
    <i name="pawaedc">   -140.99252705 </i>
    <i name="eentropy">      0.00000000 </i>
    <i name="bandstr">      7.24293118 </i>
    <i name="atom">    206.13270273 </i>
    <i name="e_fr_energy">     -5.01406746 </i>
    <i name="e_wo_entrp">     -5.01406746 </i>
    <i name="e_0_energy">     -5.01406746 </i>
   </energy>
  </scstep>
  <scstep>
   <time name="dav">    0.47    0.48</time>
   <time name="total">    0.47    0.48</time>
   <energy>
    <i name="e_fr_energy">    -10.82397053 </i>
    <i name="e_wo_entrp">    -10.82397053 </i>
    <i name="e_0_energy">    -10.82397053 </i>
   </energy>
  </scstep>
  <scstep>
   <time name="dav">    0.28    0.28</time>
   <time name="total">    0.28    0.28</time>
   <energy>
    <i name="e_fr_energy">    -10.83041386 </i>
    <i name="e_wo_entrp">    -10.83041386 </i>
    <i name="e_0_energy">    -10.83041386 </i>
   </energy>
  </scstep>
  <scstep>
   <time name="dav">    0.75    0.76</time>
   <time name="total">    0.76    0.76</time>
   <energy>
    <i name="e_fr_energy">    -10.83041788 </i>
    <i name="e_wo_entrp">    -10.83041788 </i>
    <i name="e_0_energy">    -10.83041788 </i>
   </energy>
  </scstep>
  <scstep>
   <time name="dav">    0.28    0.28</time>
   <time name="total">    0.30    0.31</time>
   <energy>
    <i name="e_fr_energy">    -10.83041788 </i>
    <i name="e_wo_entrp">    -10.83041788 </i>
    <i name="e_0_energy">    -10.83041788 </i>
   </energy>
  </scstep>
  <scstep>
   <time name="diag">    0.09    0.11</time>
   <time name="diis">    0.08    0.08</time>
   <time name="orth">    0.01    0.01</time>
   <time name="total">    0.21    0.24</time>
   <energy>
    <i name="e_fr_energy">    -10.88860393 </i>
    <i name="e_wo_entrp">    -10.88860393 </i>
    <i name="e_0_energy">    -10.88860393 </i>
   </energy>
  </scstep>
  <scstep>
   <time name="diag">    0.07    0.07</time>
   <time name="diis">    0.08    0.08</time>
   <time name="orth">    0.01    0.01</time>
   <time name="total">    0.19    0.19</time>
   <energy>
    <i name="e_fr_energy">    -10.83177111 </i>
    <i name="e_wo_entrp">    -10.83177111 </i>
    <i name="e_0_energy">    -10.83177111 </i>
   </energy>
  </scstep>
  <scstep>
   <time name="diag">    0.12    0.12</time>
   <time name="diis">    0.08    0.08</time>
   <time name="orth">    0.01    0.01</time>
   <time name="total">    0.24    0.24</time>
   <energy>
    <i name="e_fr_energy">    -10.84550148 </i>
    <i name="e_wo_entrp">    -10.84550148 </i>
    <i name="e_0_energy">    -10.84550148 </i>
   </energy>
  </scstep>
  <scstep>
   <time name="diag">    0.07    0.07</time>
   <time name="diis">    0.08    0.08</time>
   <time name="orth">    0.01    0.01</time>
   <time name="total">    0.19    0.19</time>
   <energy>
    <i name="e_fr_energy">    -10.84748312 </i>
    <i name="e_wo_entrp">    -10.84748312 </i>
    <i name="e_0_energy">    -10.84748312 </i>
   </energy>
  </scstep>
  <scstep>
   <time name="diag">    0.07    0.07</time>
   <time name="diis">    0.08    0.08</time>
   <time name="orth">    0.01    0.01</time>
   <time name="total">    0.19    0.19</time>
   <energy>
    <i name="e_fr_energy">    -10.84790812 </i>
    <i name="e_wo_entrp">    -10.84790812 </i>
    <i name="e_0_energy">    -10.84790812 </i>
   </energy>
  </scstep>
  <scstep>
   <time name="diag">    0.08    0.08</time>
   <time name="diis">    0.08    0.08</time>
   <time name="orth">    0.01    0.01</time>
   <time name="total">    0.19    0.19</time>
   <energy>
    <i name="e_fr_energy">    -10.84797798 </i>
    <i name="e_wo_entrp">    -10.84797798 </i>
    <i name="e_0_energy">    -10.84797798 </i>
   </energy>
  </scstep>
  <scstep>
   <time name="diag">    0.07    0.07</time>
   <time name="diis">    0.07    0.07</time>
   <time name="orth">    0.01    0.01</time>
   <time name="total">    0.18    0.18</time>
   <energy>
    <i name="e_fr_energy">    -10.84799347 </i>
    <i name="e_wo_entrp">    -10.84799347 </i>
    <i name="e_0_energy">    -10.84799347 </i>
   </energy>
  </scstep>
  <scstep>
   <time name="diag">    0.07    0.07</time>
   <time name="diis">    0.07    0.07</time>
   <time name="orth">    0.01    0.01</time>
   <time name="total">    0.16    0.17</time>
   <energy>
    <i name="alphaZ">      3.29318052 </i>
    <i name="ewald">   -226.94490564 </i>
    <i name="hartreedc">    -15.17786602 </i>
    <i name="XCdc">    -18.05964976 </i>
    <i name="pawpsdc">    830.68632644 </i>
    <i name="pawaedc">   -795.70532906 </i>
    <i name="eentropy">      0.00000000 </i>
    <i name="bandstr">      4.92754382 </i>
    <i name="atom">    206.13270273 </i>
    <i name="e_fr_energy">    -10.84799696 </i>
    <i name="e_wo_entrp">    -10.84799696 </i>
    <i name="e_0_energy">    -10.84799696 </i>
   </energy>
  </scstep>
  <structure>
   <crystal>
    <varray name="basis" >
     <v>       3.86697459       0.00000000       0.00000000 </v>
     <v>       1.93348730       3.34889823       0.00000000 </v>
     <v>       1.93348730       1.11629941       3.15737153 </v>
    </varray>
    <i name="volume">     40.88829091 </i>
    <varray name="rec_basis" >
     <v>       0.25860010      -0.14930283      -0.10557305 </v>
     <v>       0.00000000       0.29860567      -0.10557305 </v>
     <v>       0.00000000       0.00000000       0.31671914 </v>
    </varray>
   </crystal>
   <varray name="positions" >
    <v>       0.74999998       0.74999998       0.75000000 </v>
    <v>       0.50000001       0.49999999       0.50000000 </v>
   </varray>
  </structure>
  <varray name="forces" >
   <v>       0.00000000       0.00000000      -0.00000000 </v>
   <v>      -0.00000000      -0.00000000       0.00000000 </v>
  </varray>
  <varray name="stress" >
   <v>     -28.41597939      -0.00000000      -0.00000000 </v>
   <v>      -0.00000000     -28.41597939      -0.00000000 </v>
   <v>       0.00000000      -0.00000000     -28.41597939 </v>
  </varray>
  <energy>
   <i name="e_fr_energy">    -11.28651399 </i>
   <i name="e_wo_entrp">    -11.28651399 </i>
   <i name="e_0_energy">      0.00000000 </i>
  </energy>
  <time name="totalsc">    3.93    4.11</time>
 </calculation>
 <calculation>
  <scstep>
   <time name="dav">    0.49    0.49</time>
   <time name="total">    0.52    0.52</time>
   <energy>
    <i name="alphaZ">      3.47222558 </i>
    <i name="ewald">   -230.98542109 </i>
    <i name="hartreedc">    -15.44933645 </i>
    <i name="XCdc">    -17.80244268 </i>
    <i name="pawpsdc">    829.99861701 </i>
    <i name="pawaedc">   -795.01766727 </i>
    <i name="eentropy">      0.00000000 </i>
    <i name="bandstr">      8.82044485 </i>
    <i name="atom">    206.13270273 </i>
    <i name="e_fr_energy">    -10.83087731 </i>
    <i name="e_wo_entrp">    -10.83087731 </i>
    <i name="e_0_energy">    -10.83087731 </i>
   </energy>
  </scstep>
  <scstep>
   <time name="diag">    0.07    0.07</time>
   <time name="diis">    0.08    0.08</time>
   <time name="orth">    0.01    0.01</time>
   <time name="total">    0.19    0.19</time>
   <energy>
    <i name="e_fr_energy">    -10.82038014 </i>
    <i name="e_wo_entrp">    -10.82038014 </i>
    <i name="e_0_energy">    -10.82038014 </i>
   </energy>
  </scstep>
  <scstep>
   <time name="diag">    0.07    0.07</time>
   <time name="diis">    0.08    0.08</time>
   <time name="orth">    0.01    0.01</time>
   <time name="total">    0.19    0.19</time>
   <energy>
    <i name="e_fr_energy">    -10.81512578 </i>
    <i name="e_wo_entrp">    -10.81512578 </i>
    <i name="e_0_energy">    -10.81512578 </i>
   </energy>
  </scstep>
  <scstep>
   <time name="diag">    0.07    0.07</time>
   <time name="diis">    0.08    0.08</time>
   <time name="orth">    0.01    0.01</time>
   <time name="total">    0.17    0.17</time>
   <energy>
    <i name="alphaZ">      3.47222558 </i>
    <i name="ewald">   -230.98542109 </i>
    <i name="hartreedc">    -14.55838034 </i>
    <i name="XCdc">    -17.82153376 </i>
    <i name="pawpsdc">    962.00120700 </i>
    <i name="pawaedc">   -927.05734103 </i>
    <i name="eentropy">      0.00000000 </i>
    <i name="bandstr">      8.00141744 </i>
    <i name="atom">    206.13270273 </i>
    <i name="e_fr_energy">    -10.81512348 </i>
    <i name="e_wo_entrp">    -10.81512348 </i>
    <i name="e_0_energy">    -10.81512348 </i>
   </energy>
  </scstep>
  <structure>
   <crystal>
    <varray name="basis" >
     <v>       3.79933149      -0.00000000      -0.00000000 </v>
     <v>       1.89966574       3.29031759      -0.00000000 </v>
     <v>       1.89966574       1.09677253       3.10214117 </v>
    </varray>
    <i name="volume">     38.77988917 </i>
    <varray name="rec_basis" >
     <v>       0.26320420      -0.15196101      -0.10745266 </v>
     <v>       0.00000000       0.30392203      -0.10745266 </v>
     <v>       0.00000000       0.00000000       0.32235799 </v>
    </varray>
   </crystal>
   <varray name="positions" >
    <v>       0.74999998       0.74999998       0.75000000 </v>
    <v>       0.50000001       0.49999999       0.50000000 </v>
   </varray>
  </structure>
  <varray name="forces" >
   <v>      -0.00000000      -0.00000000      -0.00000000 </v>
   <v>       0.00000000       0.00000000       0.00000000 </v>
  </varray>
  <varray name="stress" >
   <v>      21.64211787      -0.00000000      -0.00000000 </v>
   <v>      -0.00000000      21.64211787       0.00000000 </v>
   <v>      -0.00000000       0.00000000      21.64211787 </v>
  </varray>
  <energy>
   <i name="e_fr_energy">    -11.29264713 </i>
   <i name="e_wo_entrp">    -11.29264713 </i>
   <i name="e_0_energy">      0.00000000 </i>
  </energy>
  <time name="totalsc">    1.34    1.35</time>
 </calculation>
 <calculation>
  <scstep>
   <time name="dav">    0.43    0.43</time>
   <time name="total">    0.46    0.46</time>
   <energy>
    <i name="alphaZ">      3.39895800 </i>
    <i name="ewald">   -229.34918007 </i>
    <i name="hartreedc">    -14.45408600 </i>
    <i name="XCdc">    -17.92315152 </i>
    <i name="pawpsdc">    934.35260413 </i>
    <i name="pawaedc">   -899.41645646 </i>
    <i name="eentropy">      0.00000000 </i>
    <i name="bandstr">      6.41957819 </i>
    <i name="atom">    206.13270273 </i>
    <i name="e_fr_energy">    -10.83903099 </i>
    <i name="e_wo_entrp">    -10.83903099 </i>
    <i name="e_0_energy">    -10.83903099 </i>
   </energy>
  </scstep>
  <scstep>
   <time name="diag">    0.07    0.07</time>
   <time name="diis">    0.08    0.08</time>
   <time name="orth">    0.01    0.01</time>
   <time name="total">    0.19    0.20</time>
   <energy>
    <i name="e_fr_energy">    -10.83744507 </i>
    <i name="e_wo_entrp">    -10.83744507 </i>
    <i name="e_0_energy">    -10.83744507 </i>
   </energy>
  </scstep>
  <scstep>
   <time name="diag">    0.07    0.07</time>
   <time name="diis">    0.08    0.08</time>
   <time name="orth">    0.01    0.01</time>
   <time name="total">    0.19    0.19</time>
   <energy>
    <i name="e_fr_energy">    -10.83664672 </i>
    <i name="e_wo_entrp">    -10.83664672 </i>
    <i name="e_0_energy">    -10.83664672 </i>
   </energy>
  </scstep>
  <scstep>
   <time name="diag">    0.07    0.07</time>
   <time name="diis">    0.07    0.07</time>
   <time name="orth">    0.01    0.01</time>
   <time name="total">    0.17    0.17</time>
   <energy>
    <i name="alphaZ">      3.39895800 </i>
    <i name="ewald">   -229.34918007 </i>
    <i name="hartreedc">    -14.79927076 </i>
    <i name="XCdc">    -17.91325798 </i>
    <i name="pawpsdc">    882.27172858 </i>
    <i name="pawaedc">   -847.32231145 </i>
    <i name="eentropy">      0.00000000 </i>
    <i name="bandstr">      6.74398881 </i>
    <i name="atom">    206.13270273 </i>
    <i name="e_fr_energy">    -10.83664213 </i>
    <i name="e_wo_entrp">    -10.83664213 </i>
    <i name="e_0_energy">    -10.83664213 </i>
   </energy>
  </scstep>
  <structure>
   <crystal>
    <varray name="basis" >
     <v>       3.82643698      -0.00000000      -0.00000000 </v>
     <v>       1.91321849       3.31379163      -0.00000000 </v>
     <v>       1.91321849       1.10459721       3.12427271 </v>
    </varray>
    <i name="volume">     39.61582434 </i>
    <varray name="rec_basis" >
     <v>       0.26133973      -0.15088456      -0.10669150 </v>
     <v>       0.00000000       0.30176912      -0.10669150 </v>
     <v>       0.00000000       0.00000000       0.32007449 </v>
    </varray>
   </crystal>
   <varray name="positions" >
    <v>       0.74999998       0.74999998       0.75000000 </v>
    <v>       0.50000001       0.49999999       0.50000000 </v>
   </varray>
  </structure>
  <varray name="forces" >
   <v>      -0.00000000      -0.00000000      -0.00000000 </v>
   <v>       0.00000000       0.00000000       0.00000000 </v>
  </varray>
  <varray name="stress" >
   <v>       0.43417722      -0.00000000      -0.00000000 </v>
   <v>      -0.00000000       0.43417722       0.00000000 </v>
   <v>       0.00000000       0.00000000       0.43417722 </v>
  </varray>
  <energy>
   <i name="e_fr_energy">    -11.29837976 </i>
   <i name="e_wo_entrp">    -11.29837976 </i>
   <i name="e_0_energy">      0.00000000 </i>
  </energy>
  <time name="totalsc">    1.23    1.26</time>
  <eigenvalues>
   <array>
    <dimension dim="1">band</dimension>
    <dimension dim="2">kpoint</dimension>
    <dimension dim="3">spin</dimension>
    <field>eigene</field>
    <field>occ</field>
    <set>
     <set comment="spin 1">
      <set comment="kpoint 1">
       <r>   -5.8906    1.0000 </r>
       <r>    4.3346    1.0000 </r>
       <r>    5.6436    1.0000 </r>
       <r>    5.6436    1.0000 </r>
       <r>    8.4699    0.0000 </r>
       <r>    8.9336    0.0000 </r>
       <r>    8.9336    0.0000 </r>
       <r>   10.7497    0.0000 </r>
       <r>   13.1742    0.0000 </r>
       <r>   13.1742    0.0000 </r>
       <r>   14.7284    0.0000 </r>
       <r>   16.6618    0.0000 </r>
       <r>   18.3965    0.0000 </r>
       <r>   18.3965    0.0000 </r>
       <r>   22.6498    0.0000 </r>
       <r>   27.1352    0.0000 </r>
       <r>   27.1352    0.0000 </r>
       <r>   27.4874    0.0000 </r>
       <r>   29.9332    0.0000 </r>
       <r>   29.9332    0.0000 </r>
       <r>   32.4848    0.0000 </r>
       <r>   32.4848    0.0000 </r>
       <r>   33.3656    0.0000 </r>
       <r>   35.4841    0.0000 </r>
       <r>   37.5151    0.0000 </r>
       <r>   37.5151    0.0000 </r>
       <r>   38.6828    0.0000 </r>
       <r>   40.5545    0.0000 </r>
       <r>   40.5545    0.0000 </r>
       <r>   42.9850    0.0000 </r>
       <r>   42.9850    0.0000 </r>
       <r>   44.8418    0.0000 </r>
       <r>   44.8418    0.0000 </r>
       <r>   45.1187    0.0000 </r>
       <r>   48.1111    0.0000 </r>
       <r>   48.1114    0.0000 </r>
      </set>
      <set comment="kpoint 2">
       <r>   -4.8342    1.0000 </r>
       <r>    1.2912    1.0000 </r>
       <r>    3.6055    1.0000 </r>
       <r>    5.1569    1.0000 </r>
       <r>    8.6899    0.0000 </r>
       <r>    9.6225    0.0000 </r>
       <r>    9.8024    0.0000 </r>
       <r>   12.2815    0.0000 </r>
       <r>   12.4057    0.0000 </r>
       <r>   15.8305    0.0000 </r>
       <r>   16.0807    0.0000 </r>
       <r>   18.4413    0.0000 </r>
       <r>   19.9941    0.0000 </r>
       <r>   21.4516    0.0000 </r>
       <r>   22.4120    0.0000 </r>
       <r>   24.1238    0.0000 </r>
       <r>   24.8767    0.0000 </r>
       <r>   27.8279    0.0000 </r>
       <r>   28.0487    0.0000 </r>
       <r>   29.0042    0.0000 </r>
       <r>   32.1870    0.0000 </r>
       <r>   32.6923    0.0000 </r>
       <r>   33.5259    0.0000 </r>
       <r>   35.6158    0.0000 </r>
       <r>   35.8410    0.0000 </r>
       <r>   37.1385    0.0000 </r>
       <r>   37.2420    0.0000 </r>
       <r>   38.3516    0.0000 </r>
       <r>   39.3211    0.0000 </r>
       <r>   40.4301    0.0000 </r>
       <r>   40.7353    0.0000 </r>
       <r>   43.2783    0.0000 </r>
       <r>   43.8489    0.0000 </r>
       <r>   44.7055    0.0000 </r>
       <r>   44.9285    0.0000 </r>
       <r>   46.0629    0.0000 </r>
      </set>
      <set comment="kpoint 3">
       <r>   -3.6516    1.0000 </r>
       <r>   -0.8546    1.0000 </r>
       <r>    3.6417    1.0000 </r>
       <r>    4.3607    1.0000 </r>
       <r>    8.1457    0.0000 </r>
       <r>    9.4657    0.0000 </r>
       <r>   10.0393    0.0000 </r>
       <r>   13.3399    0.0000 </r>
       <r>   14.9589    0.0000 </r>
       <r>   16.4503    0.0000 </r>
       <r>   17.5539    0.0000 </r>
       <r>   17.6490    0.0000 </r>
       <r>   18.5851    0.0000 </r>
       <r>   21.1041    0.0000 </r>
       <r>   24.3744    0.0000 </r>
       <r>   25.6924    0.0000 </r>
       <r>   26.3725    0.0000 </r>
       <r>   27.1489    0.0000 </r>
       <r>   28.0066    0.0000 </r>
       <r>   28.3824    0.0000 </r>
       <r>   30.8053    0.0000 </r>
       <r>   32.1095    0.0000 </r>
       <r>   32.4640    0.0000 </r>
       <r>   33.7100    0.0000 </r>
       <r>   34.2360    0.0000 </r>
       <r>   35.7856    0.0000 </r>
       <r>   36.1331    0.0000 </r>
       <r>   36.5396    0.0000 </r>
       <r>   38.9637    0.0000 </r>
       <r>   39.2718    0.0000 </r>
       <r>   39.9807    0.0000 </r>
       <r>   41.1945    0.0000 </r>
       <r>   43.4364    0.0000 </r>
       <r>   43.7517    0.0000 </r>
       <r>   44.9469    0.0000 </r>
       <r>   46.7868    0.0000 </r>
      </set>
      <set comment="kpoint 4">
       <r>   -5.3480    1.0000 </r>
       <r>    2.7051    1.0000 </r>
       <r>    4.6040    1.0000 </r>
       <r>    4.6867    1.0000 </r>
       <r>    8.0864    0.0000 </r>
       <r>    9.6901    0.0000 </r>
       <r>   10.4253    0.0000 </r>
       <r>   10.6901    0.0000 </r>
       <r>   13.5232    0.0000 </r>
       <r>   14.1344    0.0000 </r>
       <r>   16.0131    0.0000 </r>
       <r>   17.5791    0.0000 </r>
       <r>   19.1281    0.0000 </r>
       <r>   20.4047    0.0000 </r>
       <r>   23.6280    0.0000 </r>
       <r>   24.1499    0.0000 </r>
       <r>   25.3079    0.0000 </r>
       <r>   27.6206    0.0000 </r>
       <r>   27.6762    0.0000 </r>
       <r>   29.1314    0.0000 </r>
       <r>   32.4026    0.0000 </r>
       <r>   33.4289    0.0000 </r>
       <r>   34.4088    0.0000 </r>
       <r>   36.0147    0.0000 </r>
       <r>   37.5922    0.0000 </r>
       <r>   37.8857    0.0000 </r>
       <r>   38.2638    0.0000 </r>
       <r>   39.0978    0.0000 </r>
       <r>   39.6834    0.0000 </r>
       <r>   40.3629    0.0000 </r>
       <r>   41.9664    0.0000 </r>
       <r>   41.9938    0.0000 </r>
       <r>   44.4836    0.0000 </r>
       <r>   44.9878    0.0000 </r>
       <r>   46.3561    0.0000 </r>
       <r>   46.4984    0.0000 </r>
      </set>
      <set comment="kpoint 5">
       <r>   -4.2875    1.0000 </r>
       <r>    0.9858    1.0000 </r>
       <r>    3.2399    1.0000 </r>
       <r>    3.7072    1.0000 </r>
       <r>    7.2767    0.0000 </r>
       <r>    8.8247    0.0000 </r>
       <r>   11.9810    0.0000 </r>
       <r>   12.2358    0.0000 </r>
       <r>   15.9423    0.0000 </r>
       <r>   16.2371    0.0000 </r>
       <r>   17.6621    0.0000 </r>
       <r>   19.2106    0.0000 </r>
       <r>   19.7756    0.0000 </r>
       <r>   20.8513    0.0000 </r>
       <r>   21.8995    0.0000 </r>
       <r>   23.1390    0.0000 </r>
       <r>   24.4364    0.0000 </r>
       <r>   26.0018    0.0000 </r>
       <r>   27.9572    0.0000 </r>
       <r>   30.2473    0.0000 </r>
       <r>   31.3061    0.0000 </r>
       <r>   32.4517    0.0000 </r>
       <r>   32.5458    0.0000 </r>
       <r>   33.5415    0.0000 </r>
       <r>   35.0689    0.0000 </r>
       <r>   35.3596    0.0000 </r>
       <r>   36.6304    0.0000 </r>
       <r>   39.4667    0.0000 </r>
       <r>   39.4991    0.0000 </r>
       <r>   41.4154    0.0000 </r>
       <r>   42.7462    0.0000 </r>
       <r>   43.0497    0.0000 </r>
       <r>   43.2464    0.0000 </r>
       <r>   43.5673    0.0000 </r>
       <r>   45.6162    0.0000 </r>
       <r>   46.1918    0.0000 </r>
      </set>
      <set comment="kpoint 6">
       <r>   -2.5925    1.0000 </r>
       <r>   -1.0210    1.0000 </r>
       <r>    1.8323    1.0000 </r>
       <r>    2.9447    1.0000 </r>
       <r>    8.3202    0.0000 </r>
       <r>   10.2206    0.0000 </r>
       <r>   11.2473    0.0000 </r>
       <r>   13.4201    0.0000 </r>
       <r>   14.3891    0.0000 </r>
       <r>   17.0839    0.0000 </r>
       <r>   18.2457    0.0000 </r>
       <r>   20.3354    0.0000 </r>
       <r>   21.4025    0.0000 </r>
       <r>   22.0468    0.0000 </r>
       <r>   23.5545    0.0000 </r>
       <r>   24.4008    0.0000 </r>
       <r>   24.7961    0.0000 </r>
       <r>   25.4747    0.0000 </r>
       <r>   27.1455    0.0000 </r>
       <r>   27.8412    0.0000 </r>
       <r>   28.8323    0.0000 </r>
       <r>   30.2278    0.0000 </r>
       <r>   31.1296    0.0000 </r>
       <r>   33.6434    0.0000 </r>
       <r>   34.2661    0.0000 </r>
       <r>   35.0868    0.0000 </r>
       <r>   36.8378    0.0000 </r>
       <r>   37.4988    0.0000 </r>
       <r>   38.1488    0.0000 </r>
       <r>   38.7015    0.0000 </r>
       <r>   40.6993    0.0000 </r>
       <r>   42.7138    0.0000 </r>
       <r>   44.5158    0.0000 </r>
       <r>   45.4686    0.0000 </r>
       <r>   46.0100    0.0000 </r>
       <r>   47.0780    0.0000 </r>
      </set>
      <set comment="kpoint 7">
       <r>   -3.8564    1.0000 </r>
       <r>    0.0707    1.0000 </r>
       <r>    2.5855    1.0000 </r>
       <r>    3.9881    1.0000 </r>
       <r>    8.8193    0.0000 </r>
       <r>    9.5027    0.0000 </r>
       <r>   10.9764    0.0000 </r>
       <r>   11.9016    0.0000 </r>
       <r>   15.0032    0.0000 </r>
       <r>   15.7251    0.0000 </r>
       <r>   17.9860    0.0000 </r>
       <r>   18.9749    0.0000 </r>
       <r>   20.2660    0.0000 </r>
       <r>   21.1518    0.0000 </r>
       <r>   23.2937    0.0000 </r>
       <r>   24.3115    0.0000 </r>
       <r>   25.0598    0.0000 </r>
       <r>   27.0408    0.0000 </r>
       <r>   27.9132    0.0000 </r>
       <r>   28.8882    0.0000 </r>
       <r>   30.3651    0.0000 </r>
       <r>   31.8106    0.0000 </r>
       <r>   32.1345    0.0000 </r>
       <r>   33.3712    0.0000 </r>
       <r>   34.9145    0.0000 </r>
       <r>   35.7557    0.0000 </r>
       <r>   37.3584    0.0000 </r>
       <r>   37.4954    0.0000 </r>
       <r>   38.5963    0.0000 </r>
       <r>   39.3515    0.0000 </r>
       <r>   41.1391    0.0000 </r>
       <r>   42.0894    0.0000 </r>
       <r>   42.6427    0.0000 </r>
       <r>   45.1651    0.0000 </r>
       <r>   45.5280    0.0000 </r>
       <r>   47.1855    0.0000 </r>
      </set>
      <set comment="kpoint 8">
       <r>   -2.7730    1.0000 </r>
       <r>   -0.9166    1.0000 </r>
       <r>    2.4644    1.0000 </r>
       <r>    3.2290    1.0000 </r>
       <r>    6.8114    0.0000 </r>
       <r>    7.8934    0.0000 </r>
       <r>   14.2483    0.0000 </r>
       <r>   14.3556    0.0000 </r>
       <r>   16.7759    0.0000 </r>
       <r>   16.7871    0.0000 </r>
       <r>   18.2974    0.0000 </r>
       <r>   18.9516    0.0000 </r>
       <r>   20.9434    0.0000 </r>
       <r>   21.0037    0.0000 </r>
       <r>   21.9492    0.0000 </r>
       <r>   24.7363    0.0000 </r>
       <r>   24.8654    0.0000 </r>
       <r>   25.4637    0.0000 </r>
       <r>   26.8655    0.0000 </r>
       <r>   28.3663    0.0000 </r>
       <r>   28.8556    0.0000 </r>
       <r>   29.5667    0.0000 </r>
       <r>   30.2001    0.0000 </r>
       <r>   31.9370    0.0000 </r>
       <r>   35.5045    0.0000 </r>
       <r>   36.2178    0.0000 </r>
       <r>   38.0634    0.0000 </r>
       <r>   39.0607    0.0000 </r>
       <r>   39.0920    0.0000 </r>
       <r>   40.7306    0.0000 </r>
       <r>   41.7487    0.0000 </r>
       <r>   43.0226    0.0000 </r>
       <r>   43.5962    0.0000 </r>
       <r>   44.9564    0.0000 </r>
       <r>   46.0478    0.0000 </r>
       <r>   46.4347    0.0000 </r>
      </set>
      <set comment="kpoint 9">
       <r>   -4.3856    1.0000 </r>
       <r>   -0.0466    1.0000 </r>
       <r>    4.8413    1.0000 </r>
       <r>    4.8413    1.0000 </r>
       <r>    7.6407    0.0000 </r>
       <r>    9.3857    0.0000 </r>
       <r>    9.3857    0.0000 </r>
       <r>   13.8415    0.0000 </r>
       <r>   14.5387    0.0000 </r>
       <r>   14.5387    0.0000 </r>
       <r>   15.7222    0.0000 </r>
       <r>   19.7637    0.0000 </r>
       <r>   19.7637    0.0000 </r>
       <r>   20.1597    0.0000 </r>
       <r>   22.7217    0.0000 </r>
       <r>   24.5702    0.0000 </r>
       <r>   24.5702    0.0000 </r>
       <r>   29.0602    0.0000 </r>
       <r>   29.9504    0.0000 </r>
       <r>   29.9504    0.0000 </r>
       <r>   29.9724    0.0000 </r>
       <r>   32.9553    0.0000 </r>
       <r>   32.9553    0.0000 </r>
       <r>   34.4805    0.0000 </r>
       <r>   34.4805    0.0000 </r>
       <r>   36.0184    0.0000 </r>
       <r>   36.6985    0.0000 </r>
       <r>   38.7734    0.0000 </r>
       <r>   38.7734    0.0000 </r>
       <r>   39.7249    0.0000 </r>
       <r>   39.7249    0.0000 </r>
       <r>   40.9153    0.0000 </r>
       <r>   43.4440    0.0000 </r>
       <r>   43.7770    0.0000 </r>
       <r>   47.0218    0.0000 </r>
       <r>   47.0218    0.0000 </r>
      </set>
      <set comment="kpoint 10">
       <r>   -3.1427    1.0000 </r>
       <r>   -0.7360    1.0000 </r>
       <r>    1.9048    1.0000 </r>
       <r>    4.0330    1.0000 </r>
       <r>    7.7742    0.0000 </r>
       <r>   11.4309    0.0000 </r>
       <r>   11.4351    0.0000 </r>
       <r>   12.9372    0.0000 </r>
       <r>   13.9334    0.0000 </r>
       <r>   14.0226    0.0000 </r>
       <r>   18.5646    0.0000 </r>
       <r>   20.8362    0.0000 </r>
       <r>   21.2123    0.0000 </r>
       <r>   22.0624    0.0000 </r>
       <r>   22.4963    0.0000 </r>
       <r>   24.4381    0.0000 </r>
       <r>   25.5136    0.0000 </r>
       <r>   26.0396    0.0000 </r>
       <r>   27.8920    0.0000 </r>
       <r>   28.1526    0.0000 </r>
       <r>   30.7921    0.0000 </r>
       <r>   31.4880    0.0000 </r>
       <r>   31.8970    0.0000 </r>
       <r>   32.4367    0.0000 </r>
       <r>   34.0372    0.0000 </r>
       <r>   34.8177    0.0000 </r>
       <r>   35.4885    0.0000 </r>
       <r>   36.2241    0.0000 </r>
       <r>   39.6065    0.0000 </r>
       <r>   40.2929    0.0000 </r>
       <r>   41.9907    0.0000 </r>
       <r>   42.2475    0.0000 </r>
       <r>   43.1546    0.0000 </r>
       <r>   43.6317    0.0000 </r>
       <r>   44.3177    0.0000 </r>
       <r>   46.2845    0.0000 </r>
      </set>
     </set>
     <set comment="spin 2">
      <set comment="kpoint 1">
       <r>   -5.8906    1.0000 </r>
       <r>    4.3345    1.0000 </r>
       <r>    5.6436    1.0000 </r>
       <r>    5.6436    1.0000 </r>
       <r>    8.4699    0.0000 </r>
       <r>    8.9335    0.0000 </r>
       <r>    8.9335    0.0000 </r>
       <r>   10.7497    0.0000 </r>
       <r>   13.1741    0.0000 </r>
       <r>   13.1741    0.0000 </r>
       <r>   14.7283    0.0000 </r>
       <r>   16.6618    0.0000 </r>
       <r>   18.3965    0.0000 </r>
       <r>   18.3965    0.0000 </r>
       <r>   22.6498    0.0000 </r>
       <r>   27.1351    0.0000 </r>
       <r>   27.1351    0.0000 </r>
       <r>   27.4873    0.0000 </r>
       <r>   29.9331    0.0000 </r>
       <r>   29.9331    0.0000 </r>
       <r>   32.4848    0.0000 </r>
       <r>   32.4848    0.0000 </r>
       <r>   33.3656    0.0000 </r>
       <r>   35.4841    0.0000 </r>
       <r>   37.5151    0.0000 </r>
       <r>   37.5151    0.0000 </r>
       <r>   38.6828    0.0000 </r>
       <r>   40.5545    0.0000 </r>
       <r>   40.5545    0.0000 </r>
       <r>   42.9850    0.0000 </r>
       <r>   42.9850    0.0000 </r>
       <r>   44.8418    0.0000 </r>
       <r>   44.8418    0.0000 </r>
       <r>   45.1187    0.0000 </r>
       <r>   48.1110    0.0000 </r>
       <r>   48.1113    0.0000 </r>
      </set>
      <set comment="kpoint 2">
       <r>   -4.8342    1.0000 </r>
       <r>    1.2911    1.0000 </r>
       <r>    3.6055    1.0000 </r>
       <r>    5.1569    1.0000 </r>
       <r>    8.6899    0.0000 </r>
       <r>    9.6225    0.0000 </r>
       <r>    9.8024    0.0000 </r>
       <r>   12.2815    0.0000 </r>
       <r>   12.4057    0.0000 </r>
       <r>   15.8304    0.0000 </r>
       <r>   16.0806    0.0000 </r>
       <r>   18.4413    0.0000 </r>
       <r>   19.9941    0.0000 </r>
       <r>   21.4516    0.0000 </r>
       <r>   22.4119    0.0000 </r>
       <r>   24.1237    0.0000 </r>
       <r>   24.8767    0.0000 </r>
       <r>   27.8279    0.0000 </r>
       <r>   28.0487    0.0000 </r>
       <r>   29.0042    0.0000 </r>
       <r>   32.1870    0.0000 </r>
       <r>   32.6922    0.0000 </r>
       <r>   33.5259    0.0000 </r>
       <r>   35.6158    0.0000 </r>
       <r>   35.8410    0.0000 </r>
       <r>   37.1385    0.0000 </r>
       <r>   37.2420    0.0000 </r>
       <r>   38.3515    0.0000 </r>
       <r>   39.3211    0.0000 </r>
       <r>   40.4301    0.0000 </r>
       <r>   40.7353    0.0000 </r>
       <r>   43.2783    0.0000 </r>
       <r>   43.8489    0.0000 </r>
       <r>   44.7055    0.0000 </r>
       <r>   44.9285    0.0000 </r>
       <r>   46.0629    0.0000 </r>
      </set>
      <set comment="kpoint 3">
       <r>   -3.6516    1.0000 </r>
       <r>   -0.8546    1.0000 </r>
       <r>    3.6417    1.0000 </r>
       <r>    4.3607    1.0000 </r>
       <r>    8.1457    0.0000 </r>
       <r>    9.4657    0.0000 </r>
       <r>   10.0393    0.0000 </r>
       <r>   13.3399    0.0000 </r>
       <r>   14.9589    0.0000 </r>
       <r>   16.4502    0.0000 </r>
       <r>   17.5539    0.0000 </r>
       <r>   17.6490    0.0000 </r>
       <r>   18.5850    0.0000 </r>
       <r>   21.1041    0.0000 </r>
       <r>   24.3744    0.0000 </r>
       <r>   25.6924    0.0000 </r>
       <r>   26.3725    0.0000 </r>
       <r>   27.1488    0.0000 </r>
       <r>   28.0066    0.0000 </r>
       <r>   28.3823    0.0000 </r>
       <r>   30.8053    0.0000 </r>
       <r>   32.1095    0.0000 </r>
       <r>   32.4640    0.0000 </r>
       <r>   33.7100    0.0000 </r>
       <r>   34.2360    0.0000 </r>
       <r>   35.7856    0.0000 </r>
       <r>   36.1331    0.0000 </r>
       <r>   36.5396    0.0000 </r>
       <r>   38.9637    0.0000 </r>
       <r>   39.2718    0.0000 </r>
       <r>   39.9807    0.0000 </r>
       <r>   41.1945    0.0000 </r>
       <r>   43.4364    0.0000 </r>
       <r>   43.7517    0.0000 </r>
       <r>   44.9469    0.0000 </r>
       <r>   46.7868    0.0000 </r>
      </set>
      <set comment="kpoint 4">
       <r>   -5.3480    1.0000 </r>
       <r>    2.7050    1.0000 </r>
       <r>    4.6040    1.0000 </r>
       <r>    4.6867    1.0000 </r>
       <r>    8.0864    0.0000 </r>
       <r>    9.6901    0.0000 </r>
       <r>   10.4253    0.0000 </r>
       <r>   10.6901    0.0000 </r>
       <r>   13.5232    0.0000 </r>
       <r>   14.1344    0.0000 </r>
       <r>   16.0130    0.0000 </r>
       <r>   17.5791    0.0000 </r>
       <r>   19.1281    0.0000 </r>
       <r>   20.4047    0.0000 </r>
       <r>   23.6280    0.0000 </r>
       <r>   24.1498    0.0000 </r>
       <r>   25.3079    0.0000 </r>
       <r>   27.6205    0.0000 </r>
       <r>   27.6762    0.0000 </r>
       <r>   29.1313    0.0000 </r>
       <r>   32.4025    0.0000 </r>
       <r>   33.4289    0.0000 </r>
       <r>   34.4088    0.0000 </r>
       <r>   36.0146    0.0000 </r>
       <r>   37.5922    0.0000 </r>
       <r>   37.8857    0.0000 </r>
       <r>   38.2638    0.0000 </r>
       <r>   39.0978    0.0000 </r>
       <r>   39.6834    0.0000 </r>
       <r>   40.3629    0.0000 </r>
       <r>   41.9664    0.0000 </r>
       <r>   41.9938    0.0000 </r>
       <r>   44.4836    0.0000 </r>
       <r>   44.9878    0.0000 </r>
       <r>   46.3561    0.0000 </r>
       <r>   46.4965    0.0000 </r>
      </set>
      <set comment="kpoint 5">
       <r>   -4.2875    1.0000 </r>
       <r>    0.9858    1.0000 </r>
       <r>    3.2399    1.0000 </r>
       <r>    3.7072    1.0000 </r>
       <r>    7.2766    0.0000 </r>
       <r>    8.8247    0.0000 </r>
       <r>   11.9809    0.0000 </r>
       <r>   12.2358    0.0000 </r>
       <r>   15.9423    0.0000 </r>
       <r>   16.2371    0.0000 </r>
       <r>   17.6620    0.0000 </r>
       <r>   19.2106    0.0000 </r>
       <r>   19.7756    0.0000 </r>
       <r>   20.8513    0.0000 </r>
       <r>   21.8995    0.0000 </r>
       <r>   23.1389    0.0000 </r>
       <r>   24.4364    0.0000 </r>
       <r>   26.0018    0.0000 </r>
       <r>   27.9571    0.0000 </r>
       <r>   30.2473    0.0000 </r>
       <r>   31.3060    0.0000 </r>
       <r>   32.4517    0.0000 </r>
       <r>   32.5458    0.0000 </r>
       <r>   33.5415    0.0000 </r>
       <r>   35.0689    0.0000 </r>
       <r>   35.3596    0.0000 </r>
       <r>   36.6304    0.0000 </r>
       <r>   39.4667    0.0000 </r>
       <r>   39.4990    0.0000 </r>
       <r>   41.4154    0.0000 </r>
       <r>   42.7462    0.0000 </r>
       <r>   43.0497    0.0000 </r>
       <r>   43.2464    0.0000 </r>
       <r>   43.5673    0.0000 </r>
       <r>   45.6162    0.0000 </r>
       <r>   46.1918    0.0000 </r>
      </set>
      <set comment="kpoint 6">
       <r>   -2.5925    1.0000 </r>
       <r>   -1.0210    1.0000 </r>
       <r>    1.8322    1.0000 </r>
       <r>    2.9447    1.0000 </r>
       <r>    8.3202    0.0000 </r>
       <r>   10.2206    0.0000 </r>
       <r>   11.2472    0.0000 </r>
       <r>   13.4201    0.0000 </r>
       <r>   14.3891    0.0000 </r>
       <r>   17.0839    0.0000 </r>
       <r>   18.2456    0.0000 </r>
       <r>   20.3354    0.0000 </r>
       <r>   21.4025    0.0000 </r>
       <r>   22.0468    0.0000 </r>
       <r>   23.5545    0.0000 </r>
       <r>   24.4008    0.0000 </r>
       <r>   24.7961    0.0000 </r>
       <r>   25.4747    0.0000 </r>
       <r>   27.1455    0.0000 </r>
       <r>   27.8412    0.0000 </r>
       <r>   28.8323    0.0000 </r>
       <r>   30.2278    0.0000 </r>
       <r>   31.1295    0.0000 </r>
       <r>   33.6433    0.0000 </r>
       <r>   34.2661    0.0000 </r>
       <r>   35.0868    0.0000 </r>
       <r>   36.8378    0.0000 </r>
       <r>   37.4988    0.0000 </r>
       <r>   38.1488    0.0000 </r>
       <r>   38.7015    0.0000 </r>
       <r>   40.6993    0.0000 </r>
       <r>   42.7138    0.0000 </r>
       <r>   44.5157    0.0000 </r>
       <r>   45.4686    0.0000 </r>
       <r>   46.0100    0.0000 </r>
       <r>   47.0780    0.0000 </r>
      </set>
      <set comment="kpoint 7">
       <r>   -3.8565    1.0000 </r>
       <r>    0.0707    1.0000 </r>
       <r>    2.5855    1.0000 </r>
       <r>    3.9881    1.0000 </r>
       <r>    8.8193    0.0000 </r>
       <r>    9.5027    0.0000 </r>
       <r>   10.9764    0.0000 </r>
       <r>   11.9016    0.0000 </r>
       <r>   15.0031    0.0000 </r>
       <r>   15.7251    0.0000 </r>
       <r>   17.9860    0.0000 </r>
       <r>   18.9749    0.0000 </r>
       <r>   20.2660    0.0000 </r>
       <r>   21.1518    0.0000 </r>
       <r>   23.2937    0.0000 </r>
       <r>   24.3115    0.0000 </r>
       <r>   25.0597    0.0000 </r>
       <r>   27.0408    0.0000 </r>
       <r>   27.9132    0.0000 </r>
       <r>   28.8882    0.0000 </r>
       <r>   30.3651    0.0000 </r>
       <r>   31.8105    0.0000 </r>
       <r>   32.1345    0.0000 </r>
       <r>   33.3712    0.0000 </r>
       <r>   34.9145    0.0000 </r>
       <r>   35.7557    0.0000 </r>
       <r>   37.3584    0.0000 </r>
       <r>   37.4954    0.0000 </r>
       <r>   38.5962    0.0000 </r>
       <r>   39.3515    0.0000 </r>
       <r>   41.1392    0.0000 </r>
       <r>   42.0893    0.0000 </r>
       <r>   42.6427    0.0000 </r>
       <r>   45.1650    0.0000 </r>
       <r>   45.5280    0.0000 </r>
       <r>   47.1855    0.0000 </r>
      </set>
      <set comment="kpoint 8">
       <r>   -2.7730    1.0000 </r>
       <r>   -0.9167    1.0000 </r>
       <r>    2.4644    1.0000 </r>
       <r>    3.2289    1.0000 </r>
       <r>    6.8114    0.0000 </r>
       <r>    7.8934    0.0000 </r>
       <r>   14.2483    0.0000 </r>
       <r>   14.3556    0.0000 </r>
       <r>   16.7759    0.0000 </r>
       <r>   16.7870    0.0000 </r>
       <r>   18.2973    0.0000 </r>
       <r>   18.9516    0.0000 </r>
       <r>   20.9434    0.0000 </r>
       <r>   21.0036    0.0000 </r>
       <r>   21.9491    0.0000 </r>
       <r>   24.7363    0.0000 </r>
       <r>   24.8654    0.0000 </r>
       <r>   25.4637    0.0000 </r>
       <r>   26.8655    0.0000 </r>
       <r>   28.3663    0.0000 </r>
       <r>   28.8555    0.0000 </r>
       <r>   29.5666    0.0000 </r>
       <r>   30.2000    0.0000 </r>
       <r>   31.9370    0.0000 </r>
       <r>   35.5045    0.0000 </r>
       <r>   36.2178    0.0000 </r>
       <r>   38.0634    0.0000 </r>
       <r>   39.0607    0.0000 </r>
       <r>   39.0920    0.0000 </r>
       <r>   40.7306    0.0000 </r>
       <r>   41.7487    0.0000 </r>
       <r>   43.0226    0.0000 </r>
       <r>   43.5962    0.0000 </r>
       <r>   44.9563    0.0000 </r>
       <r>   46.0478    0.0000 </r>
       <r>   46.4347    0.0000 </r>
      </set>
      <set comment="kpoint 9">
       <r>   -4.3856    1.0000 </r>
       <r>   -0.0466    1.0000 </r>
       <r>    4.8413    1.0000 </r>
       <r>    4.8413    1.0000 </r>
       <r>    7.6407    0.0000 </r>
       <r>    9.3857    0.0000 </r>
       <r>    9.3857    0.0000 </r>
       <r>   13.8415    0.0000 </r>
       <r>   14.5387    0.0000 </r>
       <r>   14.5387    0.0000 </r>
       <r>   15.7222    0.0000 </r>
       <r>   19.7636    0.0000 </r>
       <r>   19.7636    0.0000 </r>
       <r>   20.1596    0.0000 </r>
       <r>   22.7216    0.0000 </r>
       <r>   24.5702    0.0000 </r>
       <r>   24.5702    0.0000 </r>
       <r>   29.0602    0.0000 </r>
       <r>   29.9503    0.0000 </r>
       <r>   29.9503    0.0000 </r>
       <r>   29.9724    0.0000 </r>
       <r>   32.9553    0.0000 </r>
       <r>   32.9553    0.0000 </r>
       <r>   34.4805    0.0000 </r>
       <r>   34.4805    0.0000 </r>
       <r>   36.0184    0.0000 </r>
       <r>   36.6985    0.0000 </r>
       <r>   38.7733    0.0000 </r>
       <r>   38.7733    0.0000 </r>
       <r>   39.7249    0.0000 </r>
       <r>   39.7249    0.0000 </r>
       <r>   40.9153    0.0000 </r>
       <r>   43.4440    0.0000 </r>
       <r>   43.7770    0.0000 </r>
       <r>   47.0218    0.0000 </r>
       <r>   47.0218    0.0000 </r>
      </set>
      <set comment="kpoint 10">
       <r>   -3.1427    1.0000 </r>
       <r>   -0.7360    1.0000 </r>
       <r>    1.9048    1.0000 </r>
       <r>    4.0330    1.0000 </r>
       <r>    7.7742    0.0000 </r>
       <r>   11.4309    0.0000 </r>
       <r>   11.4351    0.0000 </r>
       <r>   12.9372    0.0000 </r>
       <r>   13.9334    0.0000 </r>
       <r>   14.0225    0.0000 </r>
       <r>   18.5646    0.0000 </r>
       <r>   20.8361    0.0000 </r>
       <r>   21.2122    0.0000 </r>
       <r>   22.0623    0.0000 </r>
       <r>   22.4963    0.0000 </r>
       <r>   24.4381    0.0000 </r>
       <r>   25.5136    0.0000 </r>
       <r>   26.0396    0.0000 </r>
       <r>   27.8920    0.0000 </r>
       <r>   28.1525    0.0000 </r>
       <r>   30.7920    0.0000 </r>
       <r>   31.4880    0.0000 </r>
       <r>   31.8970    0.0000 </r>
       <r>   32.4367    0.0000 </r>
       <r>   34.0372    0.0000 </r>
       <r>   34.8176    0.0000 </r>
       <r>   35.4885    0.0000 </r>
       <r>   36.2241    0.0000 </r>
       <r>   39.6065    0.0000 </r>
       <r>   40.2929    0.0000 </r>
       <r>   41.9907    0.0000 </r>
       <r>   42.2475    0.0000 </r>
       <r>   43.1546    0.0000 </r>
       <r>   43.6317    0.0000 </r>
       <r>   44.3177    0.0000 </r>
       <r>   46.2845    0.0000 </r>
      </set>
     </set>
    </set>
   </array>
  </eigenvalues>
  <separator name="orbital magnetization" >
   <v name="MAGDIPOLOUT">      0.00000000      0.00000000      0.00000000</v>
  </separator>
  <dos>
   <i name="efermi">      5.71533208 </i>
   <total>
    <array>
     <dimension dim="1">gridpoints</dimension>
     <dimension dim="2">spin</dimension>
     <field>energy</field>
     <field>total</field>
     <field>integrated</field>
     <set>
      <set comment="spin 1">
       <r>    -8.5907     0.0000     0.0000 </r>
       <r>    -8.3927     0.0000     0.0000 </r>
       <r>    -8.1947     0.0000     0.0000 </r>
       <r>    -7.9967     0.0000     0.0000 </r>
       <r>    -7.7987     0.0000     0.0000 </r>
       <r>    -7.6007     0.0000     0.0000 </r>
       <r>    -7.4027     0.0000     0.0000 </r>
       <r>    -7.2047     0.0000     0.0000 </r>
       <r>    -7.0066     0.0000     0.0000 </r>
       <r>    -6.8086     0.0000     0.0000 </r>
       <r>    -6.6106     0.0000     0.0000 </r>
       <r>    -6.4126     0.0000     0.0000 </r>
       <r>    -6.2146     0.0000     0.0000 </r>
       <r>    -6.0166     0.0000     0.0000 </r>
       <r>    -5.8186     0.0553     0.0074 </r>
       <r>    -5.6206     0.0942     0.0221 </r>
       <r>    -5.4226     0.1412     0.0453 </r>
       <r>    -5.2246     0.1567     0.0750 </r>
       <r>    -5.0266     0.1773     0.1082 </r>
       <r>    -4.8286     0.1948     0.1450 </r>
       <r>    -4.6306     0.2234     0.1863 </r>
       <r>    -4.4325     0.2602     0.2340 </r>
       <r>    -4.2345     0.3013     0.2899 </r>
       <r>    -4.0365     0.3381     0.3534 </r>
       <r>    -3.8385     0.3946     0.4236 </r>
       <r>    -3.6405     0.4139     0.5229 </r>
       <r>    -3.4425     0.4003     0.6038 </r>
       <r>    -3.2445     0.3710     0.6804 </r>
       <r>    -3.0465     0.3709     0.7518 </r>
       <r>    -2.8485     0.3911     0.8278 </r>
       <r>    -2.6505     0.5819     0.9436 </r>
       <r>    -2.4525     0.0000     1.0000 </r>
       <r>    -2.2545     0.0000     1.0000 </r>
       <r>    -2.0565     0.0000     1.0000 </r>
       <r>    -1.8585     0.0000     1.0000 </r>
       <r>    -1.6604     0.0000     1.0000 </r>
       <r>    -1.4624     0.0000     1.0000 </r>
       <r>    -1.2644     0.0000     1.0000 </r>
       <r>    -1.0664     0.0000     1.0000 </r>
       <r>    -0.8684     0.7388     1.1811 </r>
       <r>    -0.6704     0.5155     1.3095 </r>
       <r>    -0.4724     0.4565     1.4059 </r>
       <r>    -0.2744     0.3894     1.4898 </r>
       <r>    -0.0764     0.3141     1.5596 </r>
       <r>     0.1216     0.2419     1.6141 </r>
       <r>     0.3196     0.2182     1.6596 </r>
       <r>     0.5176     0.1961     1.7006 </r>
       <r>     0.7156     0.1759     1.7374 </r>
       <r>     0.9137     0.1573     1.7704 </r>
       <r>     1.1117     0.1368     1.7997 </r>
       <r>     1.3097     0.1165     1.8246 </r>
       <r>     1.5077     0.1067     1.8467 </r>
       <r>     1.7057     0.0973     1.8669 </r>
       <r>     1.9037     0.5759     1.9707 </r>
       <r>     2.1017     0.5757     2.0835 </r>
       <r>     2.2997     0.5666     2.1970 </r>
       <r>     2.4977     0.4882     2.3165 </r>
       <r>     2.6957     0.4374     2.4076 </r>
       <r>     2.8937     0.4051     2.4909 </r>
       <r>     3.0917     0.8153     2.6501 </r>
       <r>     3.2897     0.7485     2.8231 </r>
       <r>     3.4877     0.7559     2.9723 </r>
       <r>     3.6858     0.7429     3.1252 </r>
       <r>     3.8838     0.6819     3.2643 </r>
       <r>     4.0818     0.7552     3.4174 </r>
       <r>     4.2798     0.6507     3.5566 </r>
       <r>     4.4778     0.5159     3.6791 </r>
       <r>     4.6758     0.4175     3.7713 </r>
       <r>     4.8738     0.4017     3.8593 </r>
       <r>     5.0718     0.2548     3.9259 </r>
       <r>     5.2698     0.1301     3.9603 </r>
       <r>     5.4678     0.0812     3.9810 </r>
       <r>     5.6658     0.0000     4.0000 </r>
       <r>     5.8638     0.0000     4.0000 </r>
       <r>     6.0618     0.0000     4.0000 </r>
       <r>     6.2599     0.0000     4.0000 </r>
       <r>     6.4579     0.0000     4.0000 </r>
       <r>     6.6559     0.0000     4.0000 </r>
       <r>     6.8539     0.0890     4.0153 </r>
       <r>     7.0519     0.1289     4.0368 </r>
       <r>     7.2499     0.1761     4.0669 </r>
       <r>     7.4479     0.2060     4.1030 </r>
       <r>     7.6459     0.2707     4.1499 </r>
       <r>     7.8439     0.4698     4.2183 </r>
       <r>     8.0419     0.8389     4.3619 </r>
       <r>     8.2399     1.2081     4.5800 </r>
       <r>     8.4379     1.0324     4.8305 </r>
       <r>     8.6359     0.6672     4.9998 </r>
       <r>     8.8339     0.1448     5.0955 </r>
       <r>     9.0320     0.2884     5.1447 </r>
       <r>     9.2300     0.4500     5.2170 </r>
       <r>     9.4280     0.9489     5.3313 </r>
       <r>     9.6260     1.2605     5.6189 </r>
       <r>     9.8240     0.5748     5.7652 </r>
       <r>    10.0220     0.6510     5.8880 </r>
       <r>    10.2200     0.6529     6.0207 </r>
       <r>    10.4180     0.5822     6.1630 </r>
       <r>    10.6160     0.4911     6.2642 </r>
       <r>    10.8140     0.5398     6.4057 </r>
       <r>    11.0120     0.6187     6.5130 </r>
       <r>    11.2100     0.8901     6.6646 </r>
       <r>    11.4080     0.4703     6.8540 </r>
       <r>    11.6061     0.3188     6.9215 </r>
       <r>    11.8041     0.3000     6.9826 </r>
       <r>    12.0021     0.4694     7.0545 </r>
       <r>    12.2001     0.5925     7.1613 </r>
       <r>    12.3981     0.4605     7.2593 </r>
       <r>    12.5961     0.5185     7.3562 </r>
       <r>    12.7941     0.5669     7.4639 </r>
       <r>    12.9921     0.6216     7.5805 </r>
       <r>    13.1901     0.8078     7.7222 </r>
       <r>    13.3881     0.8242     7.8942 </r>
       <r>    13.5861     0.4439     8.0378 </r>
       <r>    13.7841     0.3833     8.1192 </r>
       <r>    13.9821     0.4020     8.1933 </r>
       <r>    14.1801     0.5550     8.2888 </r>
       <r>    14.3782     0.6721     8.4369 </r>
       <r>    14.5762     0.7138     8.5941 </r>
       <r>    14.7742     0.8015     8.7476 </r>
       <r>    14.9722     1.0764     8.9190 </r>
       <r>    15.1702     0.5405     9.0329 </r>
       <r>    15.3682     0.5694     9.1426 </r>
       <r>    15.5662     0.6060     9.2589 </r>
       <r>    15.7642     0.8559     9.3914 </r>
       <r>    15.9622     0.7594     9.5446 </r>
       <r>    16.1602     0.6462     9.7037 </r>
       <r>    16.3582     0.6314     9.8302 </r>
       <r>    16.5562     0.5484     9.9505 </r>
       <r>    16.7542     0.5382    10.0616 </r>
       <r>    16.9523     0.5637    10.1983 </r>
       <r>    17.1503     0.2502    10.3104 </r>
       <r>    17.3483     0.2779    10.3627 </r>
       <r>    17.5463     0.3070    10.4206 </r>
       <r>    17.7443     0.5221    10.5091 </r>
       <r>    17.9423     0.7703    10.6363 </r>
       <r>    18.1403     1.1185    10.8250 </r>
       <r>    18.3383     0.8645    11.1401 </r>
       <r>    18.5363     0.4397    11.2769 </r>
       <r>    18.7343     0.4861    11.3679 </r>
       <r>    18.9323     0.5726    11.4727 </r>
       <r>    19.1303     0.7952    11.6467 </r>
       <r>    19.3283     0.6614    11.7849 </r>
       <r>    19.5263     0.7033    11.9199 </r>
       <r>    19.7244     0.7488    12.0637 </r>
       <r>    19.9224     0.7964    12.2157 </r>
       <r>    20.1204     0.7398    12.3717 </r>
       <r>    20.3184     0.6079    12.5054 </r>
       <r>    20.5164     0.7010    12.6627 </r>
       <r>    20.7144     0.7161    12.8028 </r>
       <r>    20.9124     0.9670    12.9572 </r>
       <r>    21.1104     1.6042    13.2176 </r>
       <r>    21.3084     1.2866    13.4969 </r>
       <r>    21.5064     0.5290    13.6929 </r>
       <r>    21.7044     0.4778    13.7929 </r>
       <r>    21.9024     0.8993    13.8824 </r>
       <r>    22.1004     0.1623    14.0585 </r>
       <r>    22.2985     0.2314    14.0974 </r>
       <r>    22.4965     0.4037    14.1547 </r>
       <r>    22.6945     0.6065    14.2593 </r>
       <r>    22.8925     0.6745    14.3863 </r>
       <r>    23.0905     0.7342    14.5259 </r>
       <r>    23.2885     0.8588    14.6848 </r>
       <r>    23.4865     0.8041    14.8462 </r>
       <r>    23.6845     0.3882    14.9804 </r>
       <r>    23.8825     0.4080    15.0589 </r>
       <r>    24.0805     0.4466    15.1432 </r>
       <r>    24.2785     0.7487    15.3043 </r>
       <r>    24.4765     0.9936    15.6334 </r>
       <r>    24.6745     0.9930    15.8262 </r>
       <r>    24.8725     1.4962    16.1599 </r>
       <r>    25.0706     1.2186    16.4389 </r>
       <r>    25.2686     0.8203    16.6411 </r>
       <r>    25.4666     5.3790    16.7882 </r>
       <r>    25.6646     0.7366    17.0125 </r>
       <r>    25.8626     0.5996    17.1461 </r>
       <r>    26.0606     0.4604    17.2515 </r>
       <r>    26.2586     0.4196    17.3386 </r>
       <r>    26.4566     0.3648    17.4197 </r>
       <r>    26.6546     0.3605    17.4916 </r>
       <r>    26.8526     0.3522    17.5622 </r>
       <r>    27.0506     0.7257    17.6929 </r>
       <r>    27.2486     0.7128    17.8837 </r>
       <r>    27.4466     0.7357    18.0272 </r>
       <r>    27.6447     1.0345    18.2334 </r>
       <r>    27.8427     1.6307    18.4855 </r>
       <r>    28.0407     0.9073    18.9228 </r>
       <r>    28.2387     0.8454    19.0871 </r>
       <r>    28.4367     0.7052    19.2564 </r>
       <r>    28.6347     0.6166    19.3872 </r>
       <r>    28.8327     3.6076    19.5253 </r>
       <r>    29.0307     0.9076    19.7508 </r>
       <r>    29.2287     0.7046    19.9141 </r>
       <r>    29.4267     0.5975    20.0429 </r>
       <r>    29.6247     0.5870    20.1678 </r>
       <r>    29.8227     0.5304    20.2783 </r>
       <r>    30.0207     0.4664    20.3838 </r>
       <r>    30.2187     0.5737    20.4926 </r>
       <r>    30.4168     0.7115    20.6338 </r>
       <r>    30.6148     0.8338    20.7886 </r>
       <r>    30.8128     0.6265    20.9624 </r>
       <r>    31.0108     0.6294    21.0865 </r>
       <r>    31.2088     0.7057    21.2409 </r>
       <r>    31.4068     0.7338    21.3834 </r>
       <r>    31.6048     0.7952    21.5328 </r>
       <r>    31.8028     0.9061    21.7009 </r>
       <r>    32.0008     0.9953    21.8927 </r>
       <r>    32.1988     0.9798    22.0982 </r>
       <r>    32.3968     1.1828    22.3153 </r>
       <r>    32.5948     0.8427    22.5372 </r>
       <r>    32.7928     0.8507    22.7059 </r>
       <r>    32.9909     0.8187    22.8713 </r>
       <r>    33.1889     0.8203    23.0330 </r>
       <r>    33.3869     0.9143    23.2029 </r>
       <r>    33.5849     1.0328    23.4098 </r>
       <r>    33.7829     0.3979    23.5598 </r>
       <r>    33.9809     0.3441    23.6333 </r>
       <r>    34.1789     0.8783    23.7358 </r>
       <r>    34.3769     0.9374    23.9674 </r>
       <r>    34.5749     0.7367    24.1254 </r>
       <r>    34.7729     0.6494    24.2629 </r>
       <r>    34.9709     0.9023    24.4069 </r>
       <r>    35.1689     1.0677    24.6385 </r>
       <r>    35.3669     1.0816    24.8484 </r>
       <r>    35.5649     1.0361    25.0701 </r>
       <r>    35.7630     1.2526    25.2849 </r>
       <r>    35.9610     0.8617    25.5000 </r>
       <r>    36.1590     0.6605    25.6383 </r>
       <r>    36.3570     0.6672    25.7752 </r>
       <r>    36.5550     0.8135    25.9232 </r>
       <r>    36.7530     1.0198    26.1020 </r>
       <r>    36.9510     1.2309    26.3547 </r>
       <r>    37.1490     1.2169    26.5978 </r>
       <r>    37.3470     1.2191    26.8388 </r>
       <r>    37.5450     1.3410    27.1027 </r>
       <r>    37.7430     0.7626    27.2904 </r>
       <r>    37.9410     0.4923    27.4210 </r>
       <r>    38.1390     0.3899    27.5205 </r>
       <r>    38.3371     0.7629    27.6769 </r>
       <r>    38.5351     0.8263    27.8343 </r>
       <r>    38.7331     1.1621    28.0471 </r>
       <r>    38.9311     1.5843    28.3214 </r>
       <r>    39.1291     1.4296    28.6365 </r>
       <r>    39.3271     1.4301    28.9171 </r>
       <r>    39.5251     1.1153    29.1703 </r>
       <r>    39.7231     0.6779    29.3500 </r>
       <r>    39.9211     0.7032    29.4853 </r>
       <r>    40.1191     0.6284    29.6206 </r>
       <r>    40.3171     0.5927    29.7418 </r>
       <r>    40.5151     0.5518    29.8761 </r>
       <r>    40.7131     0.7328    30.0119 </r>
       <r>    40.9111     0.8232    30.1788 </r>
       <r>    41.1092     0.9390    30.3531 </r>
       <r>    41.3072     0.8155    30.5317 </r>
       <r>    41.5052     0.6897    30.6802 </r>
       <r>    41.7032     0.6498    30.8126 </r>
       <r>    41.9012     0.5670    30.9443 </r>
       <r>    42.0992     0.9044    31.0717 </r>
       <r>    42.2972     0.9647    31.2583 </r>
       <r>    42.4952     0.9423    31.4476 </r>
       <r>    42.6932     1.0009    31.6339 </r>
       <r>    42.8912     1.0052    31.8538 </r>
       <r>    43.0892     0.6975    32.0785 </r>
       <r>    43.2872     0.8716    32.2316 </r>
       <r>    43.4852     0.7572    32.4166 </r>
       <r>    43.6833     0.7792    32.5717 </r>
       <r>    43.8813     0.8106    32.7502 </r>
       <r>    44.0793     0.8318    32.9129 </r>
       <r>    44.2773     0.8446    33.0790 </r>
       <r>    44.4753     0.9033    33.2510 </r>
       <r>    44.6733     0.8611    33.4463 </r>
       <r>    44.8713     1.0342    33.6449 </r>
       <r>    45.0693     1.3632    33.9171 </r>
       <r>    45.2673     1.0252    34.1375 </r>
       <r>    45.4653     0.9851    34.3389 </r>
       <r>    45.6633     0.8689    34.5089 </r>
       <r>    45.8613     0.7643    34.6708 </r>
       <r>    46.0593     0.1824    34.8882 </r>
       <r>    46.2573     0.6922    34.9709 </r>
       <r>    46.4554     1.0199    35.1545 </r>
       <r>    46.6534     1.0838    35.3583 </r>
       <r>    46.8514     1.2763    35.5963 </r>
       <r>    47.0494     0.9738    35.8223 </r>
       <r>    47.2474     0.0745    35.9498 </r>
       <r>    47.4454     0.0616    35.9632 </r>
       <r>    47.6434     0.0500    35.9743 </r>
       <r>    47.8414     0.0397    35.9831 </r>
       <r>    48.0394     0.0308    35.9901 </r>
       <r>    48.2374     0.0000    36.0000 </r>
       <r>    48.4354     0.0000    36.0000 </r>
       <r>    48.6334     0.0000    36.0000 </r>
       <r>    48.8314     0.0000    36.0000 </r>
       <r>    49.0295     0.0000    36.0000 </r>
       <r>    49.2275     0.0000    36.0000 </r>
       <r>    49.4255     0.0000    36.0000 </r>
       <r>    49.6235     0.0000    36.0000 </r>
       <r>    49.8215     0.0000    36.0000 </r>
       <r>    50.0195     0.0000    36.0000 </r>
       <r>    50.2175     0.0000    36.0000 </r>
       <r>    50.4155     0.0000    36.0000 </r>
       <r>    50.6135     0.0000    36.0000 </r>
       <r>    50.8115     0.0000    36.0000 </r>
      </set>
      <set comment="spin 2">
       <r>    -8.5907     0.0000     0.0000 </r>
       <r>    -8.3927     0.0000     0.0000 </r>
       <r>    -8.1947     0.0000     0.0000 </r>
       <r>    -7.9967     0.0000     0.0000 </r>
       <r>    -7.7987     0.0000     0.0000 </r>
       <r>    -7.6007     0.0000     0.0000 </r>
       <r>    -7.4027     0.0000     0.0000 </r>
       <r>    -7.2047     0.0000     0.0000 </r>
       <r>    -7.0066     0.0000     0.0000 </r>
       <r>    -6.8086     0.0000     0.0000 </r>
       <r>    -6.6106     0.0000     0.0000 </r>
       <r>    -6.4126     0.0000     0.0000 </r>
       <r>    -6.2146     0.0000     0.0000 </r>
[...]
        <r>  0.0104  0.0094  0.0078  0.0281  0.0000  0.0000  0.0000  0.0000  0.0000 </r>
       </set>
       <set comment="band 24">
        <r>  0.0057  0.0002  0.0007  0.0005  0.0000  0.0000  0.0000  0.0000  0.0000 </r>
        <r>  0.0057  0.0002  0.0007  0.0005  0.0000  0.0000  0.0000  0.0000  0.0000 </r>
       </set>
       <set comment="band 25">
        <r>  0.0000  0.0745  0.0000  0.0248  0.0000  0.0000  0.0000  0.0000  0.0000 </r>
        <r>  0.0000  0.0745  0.0000  0.0248  0.0000  0.0000  0.0000  0.0000  0.0000 </r>
       </set>
       <set comment="band 26">
        <r>  0.0077  0.0047  0.0233  0.0142  0.0000  0.0000  0.0000  0.0000  0.0000 </r>
        <r>  0.0077  0.0047  0.0233  0.0142  0.0000  0.0000  0.0000  0.0000  0.0000 </r>
       </set>
       <set comment="band 27">
        <r>  0.0095  0.0004  0.0329  0.0013  0.0000  0.0000  0.0000  0.0000  0.0000 </r>
        <r>  0.0095  0.0004  0.0329  0.0013  0.0000  0.0000  0.0000  0.0000  0.0000 </r>
       </set>
       <set comment="band 28">
        <r>  0.0234  0.0022  0.0046  0.0067  0.0000  0.0000  0.0000  0.0000  0.0000 </r>
        <r>  0.0234  0.0022  0.0046  0.0067  0.0000  0.0000  0.0000  0.0000  0.0000 </r>
       </set>
       <set comment="band 29">
        <r>  0.0000  0.0035  0.0000  0.0012  0.0000  0.0000  0.0000  0.0000  0.0000 </r>
        <r>  0.0000  0.0035  0.0000  0.0012  0.0000  0.0000  0.0000  0.0000  0.0000 </r>
       </set>
       <set comment="band 30">
        <r>  0.0000  0.0556  0.0000  0.0185  0.0000  0.0000  0.0000  0.0000  0.0000 </r>
        <r>  0.0000  0.0556  0.0000  0.0185  0.0000  0.0000  0.0000  0.0000  0.0000 </r>
       </set>
       <set comment="band 31">
        <r>  0.0000  0.0037  0.0000  0.0012  0.0000  0.0000  0.0000  0.0000  0.0000 </r>
        <r>  0.0000  0.0037  0.0000  0.0012  0.0000  0.0000  0.0000  0.0000  0.0000 </r>
       </set>
       <set comment="band 32">
        <r>  0.0280  0.0010  0.0088  0.0031  0.0000  0.0000  0.0000  0.0000  0.0000 </r>
        <r>  0.0280  0.0010  0.0088  0.0031  0.0000  0.0000  0.0000  0.0000  0.0000 </r>
       </set>
       <set comment="band 33">
        <r>  0.0008  0.0032  0.0257  0.0097  0.0000  0.0000  0.0000  0.0000  0.0000 </r>
        <r>  0.0008  0.0032  0.0257  0.0097  0.0000  0.0000  0.0000  0.0000  0.0000 </r>
       </set>
       <set comment="band 34">
        <r>  0.0012  0.0012  0.0074  0.0036  0.0000  0.0000  0.0000  0.0000  0.0000 </r>
        <r>  0.0012  0.0012  0.0074  0.0036  0.0000  0.0000  0.0000  0.0000  0.0000 </r>
       </set>
       <set comment="band 35">
        <r>  0.0197  0.0023  0.0069  0.0070  0.0000  0.0000  0.0000  0.0000  0.0000 </r>
        <r>  0.0197  0.0023  0.0069  0.0070  0.0000  0.0000  0.0000  0.0000  0.0000 </r>
       </set>
       <set comment="band 36">
        <r>  0.0000  0.0081  0.0000  0.0027  0.0000  0.0000  0.0000  0.0000  0.0000 </r>
        <r>  0.0000  0.0081  0.0000  0.0027  0.0000  0.0000  0.0000  0.0000  0.0000 </r>
       </set>
      </set>
      <set comment="kpoint 9">
       <set comment="band 1">
        <r>  0.2133  0.0032  0.0016  0.0097  0.0000  0.0000  0.0000  0.0000  0.0000 </r>
        <r>  0.2133  0.0032  0.0016  0.0097  0.0000  0.0000  0.0000  0.0000  0.0000 </r>
       </set>
       <set comment="band 2">
        <r>  0.1054  0.0221  0.0111  0.0664  0.0000  0.0000  0.0000  0.0000  0.0000 </r>
        <r>  0.1054  0.0221  0.0111  0.0664  0.0000  0.0000  0.0000  0.0000  0.0000 </r>
       </set>
       <set comment="band 3">
        <r>  0.0000  0.0583  0.1593  0.0006  0.0000  0.0000  0.0000  0.0000  0.0000 </r>
        <r>  0.0000  0.0583  0.1593  0.0006  0.0000  0.0000  0.0000  0.0000  0.0000 </r>
       </set>
       <set comment="band 4">
        <r>  0.0000  0.1114  0.0346  0.0722  0.0000  0.0000  0.0000  0.0000  0.0000 </r>
        <r>  0.0000  0.1114  0.0346  0.0722  0.0000  0.0000  0.0000  0.0000  0.0000 </r>
       </set>
       <set comment="band 5">
        <r>  0.1787  0.0057  0.0028  0.0170  0.0000  0.0000  0.0000  0.0000  0.0000 </r>
        <r>  0.1787  0.0057  0.0028  0.0170  0.0000  0.0000  0.0000  0.0000  0.0000 </r>
       </set>
       <set comment="band 6">
        <r>  0.0000  0.0535  0.0167  0.0347  0.0000  0.0000  0.0000  0.0000  0.0000 </r>
        <r>  0.0000  0.0535  0.0167  0.0347  0.0000  0.0000  0.0000  0.0000  0.0000 </r>
       </set>
       <set comment="band 7">
        <r>  0.0000  0.0280  0.0766  0.0003  0.0000  0.0000  0.0000  0.0000  0.0000 </r>
        <r>  0.0000  0.0280  0.0766  0.0003  0.0000  0.0000  0.0000  0.0000  0.0000 </r>
       </set>
       <set comment="band 8">
        <r>  0.0039  0.0177  0.0088  0.0530  0.0000  0.0000  0.0000  0.0000  0.0000 </r>
        <r>  0.0039  0.0177  0.0088  0.0530  0.0000  0.0000  0.0000  0.0000  0.0000 </r>
       </set>
       <set comment="band 9">
        <r>  0.0000  0.0109  0.0299  0.0001  0.0000  0.0000  0.0000  0.0000  0.0000 </r>
        <r>  0.0000  0.0109  0.0299  0.0001  0.0000  0.0000  0.0000  0.0000  0.0000 </r>
       </set>
       <set comment="band 10">
        <r>  0.0000  0.0209  0.0065  0.0135  0.0000  0.0000  0.0000  0.0000  0.0000 </r>
        <r>  0.0000  0.0209  0.0065  0.0135  0.0000  0.0000  0.0000  0.0000  0.0000 </r>
       </set>
       <set comment="band 11">
        <r>  0.1035  0.0242  0.0121  0.0725  0.0000  0.0000  0.0000  0.0000  0.0000 </r>
        <r>  0.1035  0.0242  0.0121  0.0725  0.0000  0.0000  0.0000  0.0000  0.0000 </r>
       </set>
       <set comment="band 12">
        <r>  0.0000  0.0171  0.0469  0.0002  0.0000  0.0000  0.0000  0.0000  0.0000 </r>
        <r>  0.0000  0.0171  0.0469  0.0002  0.0000  0.0000  0.0000  0.0000  0.0000 </r>
       </set>
       <set comment="band 13">
        <r>  0.0000  0.0328  0.0102  0.0212  0.0000  0.0000  0.0000  0.0000  0.0000 </r>
        <r>  0.0000  0.0328  0.0102  0.0212  0.0000  0.0000  0.0000  0.0000  0.0000 </r>
       </set>
       <set comment="band 14">
        <r>  0.0161  0.0496  0.0248  0.1489  0.0000  0.0000  0.0000  0.0000  0.0000 </r>
        <r>  0.0161  0.0496  0.0248  0.1489  0.0000  0.0000  0.0000  0.0000  0.0000 </r>
       </set>
       <set comment="band 15">
        <r>  0.0687  0.0020  0.0010  0.0061  0.0000  0.0000  0.0000  0.0000  0.0000 </r>
        <r>  0.0687  0.0020  0.0010  0.0061  0.0000  0.0000  0.0000  0.0000  0.0000 </r>
       </set>
       <set comment="band 16">
        <r>  0.0000  0.0137  0.0043  0.0089  0.0000  0.0000  0.0000  0.0000  0.0000 </r>
        <r>  0.0000  0.0137  0.0043  0.0089  0.0000  0.0000  0.0000  0.0000  0.0000 </r>
       </set>
       <set comment="band 17">
        <r>  0.0000  0.0072  0.0197  0.0001  0.0000  0.0000  0.0000  0.0000  0.0000 </r>
        <r>  0.0000  0.0072  0.0197  0.0001  0.0000  0.0000  0.0000  0.0000  0.0000 </r>
       </set>
       <set comment="band 18">
        <r>  0.0066  0.0090  0.0045  0.0271  0.0000  0.0000  0.0000  0.0000  0.0000 </r>
        <r>  0.0066  0.0090  0.0045  0.0271  0.0000  0.0000  0.0000  0.0000  0.0000 </r>
       </set>
       <set comment="band 19">
        <r>  0.0000  0.0062  0.0019  0.0040  0.0000  0.0000  0.0000  0.0000  0.0000 </r>
        <r>  0.0000  0.0062  0.0019  0.0040  0.0000  0.0000  0.0000  0.0000  0.0000 </r>
       </set>
       <set comment="band 20">
        <r>  0.0000  0.0032  0.0088  0.0000  0.0000  0.0000  0.0000  0.0000  0.0000 </r>
        <r>  0.0000  0.0032  0.0088  0.0000  0.0000  0.0000  0.0000  0.0000  0.0000 </r>
       </set>
       <set comment="band 21">
        <r>  0.0173  0.0084  0.0042  0.0251  0.0000  0.0000  0.0000  0.0000  0.0000 </r>
        <r>  0.0173  0.0084  0.0042  0.0251  0.0000  0.0000  0.0000  0.0000  0.0000 </r>
       </set>
       <set comment="band 22">
        <r>  0.0000  0.0529  0.0173  0.0348  0.0000  0.0000  0.0000  0.0000  0.0000 </r>
        <r>  0.0000  0.0529  0.0173  0.0348  0.0000  0.0000  0.0000  0.0000  0.0000 </r>
       </set>
       <set comment="band 23">
        <r>  0.0000  0.0288  0.0760  0.0002  0.0000  0.0000  0.0000  0.0000  0.0000 </r>
        <r>  0.0000  0.0288  0.0760  0.0002  0.0000  0.0000  0.0000  0.0000  0.0000 </r>
       </set>
       <set comment="band 24">
        <r>  0.0000  0.0332  0.0103  0.0215  0.0000  0.0000  0.0000  0.0000  0.0000 </r>
        <r>  0.0000  0.0332  0.0103  0.0215  0.0000  0.0000  0.0000  0.0000  0.0000 </r>
       </set>
       <set comment="band 25">
        <r>  0.0000  0.0174  0.0475  0.0002  0.0000  0.0000  0.0000  0.0000  0.0000 </r>
        <r>  0.0000  0.0174  0.0475  0.0002  0.0000  0.0000  0.0000  0.0000  0.0000 </r>
       </set>
       <set comment="band 26">
        <r>  0.0381  0.0005  0.0002  0.0014  0.0000  0.0000  0.0000  0.0000  0.0000 </r>
        <r>  0.0381  0.0005  0.0002  0.0014  0.0000  0.0000  0.0000  0.0000  0.0000 </r>
       </set>
       <set comment="band 27">
        <r>  0.0000  0.0000  0.0000  0.0000  0.0000  0.0000  0.0000  0.0000  0.0000 </r>
        <r>  0.0000  0.0000  0.0000  0.0000  0.0000  0.0000  0.0000  0.0000  0.0000 </r>
       </set>
       <set comment="band 28">
        <r>  0.0000  0.0115  0.0307  0.0001  0.0000  0.0000  0.0000  0.0000  0.0000 </r>
        <r>  0.0000  0.0115  0.0307  0.0001  0.0000  0.0000  0.0000  0.0000  0.0000 </r>
       </set>
       <set comment="band 29">
        <r>  0.0000  0.0214  0.0069  0.0140  0.0000  0.0000  0.0000  0.0000  0.0000 </r>
        <r>  0.0000  0.0214  0.0069  0.0140  0.0000  0.0000  0.0000  0.0000  0.0000 </r>
       </set>
       <set comment="band 30">
        <r>  0.0000  0.0090  0.0272  0.0002  0.0000  0.0000  0.0000  0.0000  0.0000 </r>
        <r>  0.0000  0.0090  0.0272  0.0002  0.0000  0.0000  0.0000  0.0000  0.0000 </r>
       </set>
       <set comment="band 31">
        <r>  0.0000  0.0192  0.0052  0.0120  0.0000  0.0000  0.0000  0.0000  0.0000 </r>
        <r>  0.0000  0.0192  0.0052  0.0120  0.0000  0.0000  0.0000  0.0000  0.0000 </r>
       </set>
       <set comment="band 32">
        <r>  0.0319  0.0043  0.0022  0.0129  0.0000  0.0000  0.0000  0.0000  0.0000 </r>
        <r>  0.0319  0.0043  0.0022  0.0129  0.0000  0.0000  0.0000  0.0000  0.0000 </r>
       </set>
       <set comment="band 33">
        <r>  0.0000  0.0000  0.0000  0.0000  0.0000  0.0000  0.0000  0.0000  0.0000 </r>
        <r>  0.0000  0.0000  0.0000  0.0000  0.0000  0.0000  0.0000  0.0000  0.0000 </r>
       </set>
       <set comment="band 34">
        <r>  0.0271  0.0083  0.0041  0.0249  0.0000  0.0000  0.0000  0.0000  0.0000 </r>
        <r>  0.0271  0.0083  0.0041  0.0249  0.0000  0.0000  0.0000  0.0000  0.0000 </r>
       </set>
       <set comment="band 35">
        <r>  0.0000  0.0038  0.0003  0.0008  0.0000  0.0000  0.0000  0.0000  0.0000 </r>
        <r>  0.0000  0.0038  0.0003  0.0008  0.0000  0.0000  0.0000  0.0000  0.0000 </r>
       </set>
       <set comment="band 36">
        <r>  0.0000  0.0000  0.0040  0.0008  0.0000  0.0000  0.0000  0.0000  0.0000 </r>
        <r>  0.0000  0.0000  0.0040  0.0008  0.0000  0.0000  0.0000  0.0000  0.0000 </r>
       </set>
      </set>
      <set comment="kpoint 10">
       <set comment="band 1">
        <r>  0.2167  0.0059  0.0029  0.0154  0.0000  0.0000  0.0000  0.0000  0.0000 </r>
        <r>  0.2167  0.0059  0.0029  0.0154  0.0000  0.0000  0.0000  0.0000  0.0000 </r>
       </set>
       <set comment="band 2">
        <r>  0.1485  0.0263  0.0131  0.0371  0.0000  0.0000  0.0000  0.0000  0.0000 </r>
        <r>  0.1485  0.0263  0.0131  0.0371  0.0000  0.0000  0.0000  0.0000  0.0000 </r>
       </set>
       <set comment="band 3">
        <r>  0.0240  0.0480  0.0240  0.0771  0.0000  0.0000  0.0000  0.0000  0.0000 </r>
        <r>  0.0240  0.0480  0.0240  0.0771  0.0000  0.0000  0.0000  0.0000  0.0000 </r>
       </set>
       <set comment="band 4">
        <r>  0.0000  0.0690  0.1380  0.0000  0.0000  0.0000  0.0000  0.0000  0.0000 </r>
        <r>  0.0000  0.0690  0.1380  0.0000  0.0000  0.0000  0.0000  0.0000  0.0000 </r>
       </set>
       <set comment="band 5">
        <r>  0.0559  0.0311  0.0156  0.0034  0.0000  0.0000  0.0000  0.0000  0.0000 </r>
        <r>  0.0559  0.0311  0.0156  0.0034  0.0000  0.0000  0.0000  0.0000  0.0000 </r>
       </set>
       <set comment="band 6">
        <r>  0.0438  0.0352  0.0176  0.0441  0.0000  0.0000  0.0000  0.0000  0.0000 </r>
        <r>  0.0438  0.0352  0.0176  0.0441  0.0000  0.0000  0.0000  0.0000  0.0000 </r>
       </set>
       <set comment="band 7">
        <r>  0.0000  0.0396  0.0792  0.0000  0.0000  0.0000  0.0000  0.0000  0.0000 </r>
        <r>  0.0000  0.0396  0.0792  0.0000  0.0000  0.0000  0.0000  0.0000  0.0000 </r>
       </set>
       <set comment="band 8">
        <r>  0.0277  0.0158  0.0079  0.0903  0.0000  0.0000  0.0000  0.0000  0.0000 </r>
        <r>  0.0277  0.0158  0.0079  0.0903  0.0000  0.0000  0.0000  0.0000  0.0000 </r>
       </set>
       <set comment="band 9">
        <r>  0.0000  0.0142  0.0283  0.0000  0.0000  0.0000  0.0000  0.0000  0.0000 </r>
        <r>  0.0000  0.0142  0.0283  0.0000  0.0000  0.0000  0.0000  0.0000  0.0000 </r>
       </set>
       <set comment="band 10">
        <r>  0.0396  0.0589  0.0295  0.0642  0.0000  0.0000  0.0000  0.0000  0.0000 </r>
        <r>  0.0396  0.0589  0.0295  0.0642  0.0000  0.0000  0.0000  0.0000  0.0000 </r>
       </set>
       <set comment="band 11">
        <r>  0.0292  0.0012  0.0006  0.0098  0.0000  0.0000  0.0000  0.0000  0.0000 </r>
        <r>  0.0292  0.0012  0.0006  0.0098  0.0000  0.0000  0.0000  0.0000  0.0000 </r>
       </set>
       <set comment="band 12">
        <r>  0.0000  0.0153  0.0306  0.0000  0.0000  0.0000  0.0000  0.0000  0.0000 </r>
        <r>  0.0000  0.0153  0.0306  0.0000  0.0000  0.0000  0.0000  0.0000  0.0000 </r>
       </set>
       <set comment="band 13">
        <r>  0.0051  0.0910  0.0455  0.0803  0.0000  0.0000  0.0000  0.0000  0.0000 </r>
        <r>  0.0051  0.0910  0.0455  0.0803  0.0000  0.0000  0.0000  0.0000  0.0000 </r>
       </set>
       <set comment="band 14">
        <r>  0.0074  0.0121  0.0061  0.0929  0.0000  0.0000  0.0000  0.0000  0.0000 </r>
        <r>  0.0074  0.0121  0.0061  0.0929  0.0000  0.0000  0.0000  0.0000  0.0000 </r>
       </set>
       <set comment="band 15">
        <r>  0.0413  0.0093  0.0046  0.0079  0.0000  0.0000  0.0000  0.0000  0.0000 </r>
        <r>  0.0413  0.0093  0.0046  0.0079  0.0000  0.0000  0.0000  0.0000  0.0000 </r>
       </set>
       <set comment="band 16">
        <r>  0.0000  0.0211  0.0422  0.0000  0.0000  0.0000  0.0000  0.0000  0.0000 </r>
        <r>  0.0000  0.0211  0.0422  0.0000  0.0000  0.0000  0.0000  0.0000  0.0000 </r>
       </set>
       <set comment="band 17">
        <r>  0.0167  0.0204  0.0102  0.0477  0.0000  0.0000  0.0000  0.0000  0.0000 </r>
        <r>  0.0167  0.0204  0.0102  0.0477  0.0000  0.0000  0.0000  0.0000  0.0000 </r>
       </set>
       <set comment="band 18">
        <r>  0.0128  0.0414  0.0207  0.0016  0.0000  0.0000  0.0000  0.0000  0.0000 </r>
        <r>  0.0128  0.0414  0.0207  0.0016  0.0000  0.0000  0.0000  0.0000  0.0000 </r>
       </set>
       <set comment="band 19">
        <r>  0.0193  0.0005  0.0002  0.0206  0.0000  0.0000  0.0000  0.0000  0.0000 </r>
        <r>  0.0193  0.0005  0.0002  0.0206  0.0000  0.0000  0.0000  0.0000  0.0000 </r>
       </set>
       <set comment="band 20">
        <r>  0.0000  0.0065  0.0130  0.0000  0.0000  0.0000  0.0000  0.0000  0.0000 </r>
        <r>  0.0000  0.0065  0.0130  0.0000  0.0000  0.0000  0.0000  0.0000  0.0000 </r>
       </set>
       <set comment="band 21">
        <r>  0.0000  0.0049  0.0099  0.0000  0.0000  0.0000  0.0000  0.0000  0.0000 </r>
        <r>  0.0000  0.0049  0.0099  0.0000  0.0000  0.0000  0.0000  0.0000  0.0000 </r>
       </set>
       <set comment="band 22">
        <r>  0.0259  0.0074  0.0037  0.0301  0.0000  0.0000  0.0000  0.0000  0.0000 </r>
        <r>  0.0259  0.0074  0.0037  0.0301  0.0000  0.0000  0.0000  0.0000  0.0000 </r>
       </set>
       <set comment="band 23">
        <r>  0.0000  0.0142  0.0284  0.0000  0.0000  0.0000  0.0000  0.0000  0.0000 </r>
        <r>  0.0000  0.0142  0.0284  0.0000  0.0000  0.0000  0.0000  0.0000  0.0000 </r>
       </set>
       <set comment="band 24">
        <r>  0.0033  0.0012  0.0006  0.0170  0.0000  0.0000  0.0000  0.0000  0.0000 </r>
        <r>  0.0033  0.0012  0.0006  0.0170  0.0000  0.0000  0.0000  0.0000  0.0000 </r>
       </set>
       <set comment="band 25">
        <r>  0.0223  0.0036  0.0018  0.0034  0.0000  0.0000  0.0000  0.0000  0.0000 </r>
        <r>  0.0223  0.0036  0.0018  0.0034  0.0000  0.0000  0.0000  0.0000  0.0000 </r>
       </set>
       <set comment="band 26">
        <r>  0.0238  0.0128  0.0064  0.0018  0.0000  0.0000  0.0000  0.0000  0.0000 </r>
        <r>  0.0238  0.0128  0.0064  0.0018  0.0000  0.0000  0.0000  0.0000  0.0000 </r>
       </set>
       <set comment="band 27">
        <r>  0.0000  0.0358  0.0717  0.0000  0.0000  0.0000  0.0000  0.0000  0.0000 </r>
        <r>  0.0000  0.0358  0.0717  0.0000  0.0000  0.0000  0.0000  0.0000  0.0000 </r>
       </set>
       <set comment="band 28">
        <r>  0.0115  0.0055  0.0027  0.0136  0.0000  0.0000  0.0000  0.0000  0.0000 </r>
        <r>  0.0115  0.0055  0.0027  0.0136  0.0000  0.0000  0.0000  0.0000  0.0000 </r>
       </set>
       <set comment="band 29">
        <r>  0.0074  0.0015  0.0008  0.0102  0.0000  0.0000  0.0000  0.0000  0.0000 </r>
        <r>  0.0074  0.0015  0.0008  0.0102  0.0000  0.0000  0.0000  0.0000  0.0000 </r>
       </set>
       <set comment="band 30">
        <r>  0.0000  0.0065  0.0130  0.0000  0.0000  0.0000  0.0000  0.0000  0.0000 </r>
        <r>  0.0000  0.0065  0.0130  0.0000  0.0000  0.0000  0.0000  0.0000  0.0000 </r>
       </set>
       <set comment="band 31">
        <r>  0.0000  0.0187  0.0373  0.0000  0.0000  0.0000  0.0000  0.0000  0.0000 </r>
        <r>  0.0000  0.0187  0.0373  0.0000  0.0000  0.0000  0.0000  0.0000  0.0000 </r>
       </set>
       <set comment="band 32">
        <r>  0.0329  0.0088  0.0044  0.0003  0.0000  0.0000  0.0000  0.0000  0.0000 </r>
        <r>  0.0329  0.0088  0.0044  0.0003  0.0000  0.0000  0.0000  0.0000  0.0000 </r>
       </set>
       <set comment="band 33">
        <r>  0.0111  0.0097  0.0048  0.0089  0.0000  0.0000  0.0000  0.0000  0.0000 </r>
        <r>  0.0111  0.0097  0.0048  0.0089  0.0000  0.0000  0.0000  0.0000  0.0000 </r>
       </set>
       <set comment="band 34">
        <r>  0.0000  0.0004  0.0009  0.0000  0.0000  0.0000  0.0000  0.0000  0.0000 </r>
        <r>  0.0000  0.0004  0.0009  0.0000  0.0000  0.0000  0.0000  0.0000  0.0000 </r>
       </set>
       <set comment="band 35">
        <r>  0.0138  0.0108  0.0054  0.0051  0.0000  0.0000  0.0000  0.0000  0.0000 </r>
        <r>  0.0138  0.0108  0.0054  0.0051  0.0000  0.0000  0.0000  0.0000  0.0000 </r>
       </set>
       <set comment="band 36">
        <r>  0.0012  0.0145  0.0073  0.0081  0.0000  0.0000  0.0000  0.0000  0.0000 </r>
        <r>  0.0012  0.0145  0.0073  0.0081  0.0000  0.0000  0.0000  0.0000  0.0000 </r>
       </set>
      </set>
     </set>
    </set>
   </array>
  </projected>
 </calculation>
 <structure name="finalpos" >
  <crystal>
   <varray name="basis" >
    <v>       3.82643698      -0.00000000      -0.00000000 </v>
    <v>       1.91321849       3.31379163      -0.00000000 </v>
    <v>       1.91321849       1.10459721       3.12427271 </v>
   </varray>
   <i name="volume">     39.61582434 </i>
   <varray name="rec_basis" >
    <v>       0.26133973      -0.15088456      -0.10669150 </v>
    <v>       0.00000000       0.30176912      -0.10669150 </v>
    <v>       0.00000000       0.00000000       0.32007449 </v>
   </varray>
  </crystal>
  <varray name="positions" >
   <v>       0.74999998       0.74999998       0.75000000 </v>
   <v>       0.50000001       0.49999999       0.50000000 </v>
  </varray>
 </structure>
</modeling>
