 running on   36 total cores
 distrk:  each k-point on   36 cores,    1 groups
 distr:  one band on    1 cores,   36 groups
 using from now: INCAR     
 vasp.5.4.1 05Feb16 (build Apr 16 2019 13:49:49) complex                        
  
 POSCAR found type information on POSCAR  Si
 POSCAR found :  1 types and       2 ions
 scaLAPACK will be used

 ----------------------------------------------------------------------------- 
|                                                                             |
|           W    W    AA    RRRRR   N    N  II  N    N   GGGG   !!!           |
|           W    W   A  A   R    R  NN   N  II  NN   N  G    G  !!!           |
|           W    W  A    A  R    R  N N  N  II  N N  N  G       !!!           |
|           W WW W  AAAAAA  RRRRR   N  N N  II  N  N N  G  GGG   !            |
|           WW  WW  A    A  R   R   N   NN  II  N   NN  G    G                |
|           W    W  A    A  R    R  N    N  II  N    N   GGGG   !!!           |
|                                                                             |
|      For optimal performance we recommend to set                            |
|        NCORE= 4 - approx SQRT( number of cores)                             |
|      NCORE specifies how many cores store one orbital (NPAR=cpu/NCORE).     |
|      This setting can  greatly improve the performance of VASP for DFT.     |
|      The default, NPAR=number of cores might be grossly inefficient         |
|      on modern multi-core architectures or massively parallel machines.     |
|      Do your own testing !!!!                                               |
|      Unfortunately you need to use the default for GW and RPA calculations. |
|      (for HF NCORE is supported but not extensively tested yet)             |
|                                                                             |
 ----------------------------------------------------------------------------- 


 ----------------------------------------------------------------------------- 
|                                                                             |
|  ADVICE TO THIS USER RUNNING 'VASP/VAMP'   (HEAR YOUR MASTER'S VOICE ...):  |
|                                                                             |
|      You have a (more or less) 'small supercell' and for smaller cells      |
|      it is recommended  to use the reciprocal-space projection scheme!      |
|      The real space optimization is not  efficient for small cells and it   |
|      is also less accurate ...                                              |
|      Therefore set LREAL=.FALSE. in the  INCAR file                         |
|                                                                             |
 ----------------------------------------------------------------------------- 

 LDA part: xc-table for Pade appr. of Perdew
 POSCAR, INCAR and KPOINTS ok, starting setup
 FFT: planning ...
 WAVECAR not read
 entering main loop
       N       E                     dE             d eps       ncg     rms          rms(c)
DAV:   1    -0.501406746391E+01   -0.50141E+01   -0.31837E+03  1440   0.165E+02
DAV:   2    -0.108239705311E+02   -0.58099E+01   -0.58099E+01  2160   0.162E+01
DAV:   3    -0.108304138608E+02   -0.64433E-02   -0.64433E-02  1440   0.721E-01
DAV:   4    -0.108304178758E+02   -0.40150E-05   -0.40150E-05  2844   0.182E-02
DAV:   5    -0.108304178758E+02   -0.43485E-11   -0.41442E-11  1440   0.163E-05    0.523E+00
RMM:   6    -0.108886039332E+02   -0.58186E-01   -0.19901E-02  1440   0.324E-01    0.307E+00
RMM:   7    -0.108317711064E+02    0.56833E-01   -0.17304E-02  1440   0.314E-01    0.203E+00
RMM:   8    -0.108455014779E+02   -0.13730E-01   -0.39443E-03  1440   0.154E-01    0.435E-01
RMM:   9    -0.108474831248E+02   -0.19816E-02   -0.33586E-04  1440   0.421E-02    0.912E-02
RMM:  10    -0.108479081196E+02   -0.42499E-03   -0.19377E-04  1440   0.300E-02    0.428E-02
RMM:  11    -0.108479779796E+02   -0.69860E-04   -0.54380E-05  1440   0.148E-02    0.308E-02
RMM:  12    -0.108479934726E+02   -0.15493E-04   -0.62220E-06  1301   0.522E-03    0.110E-02
RMM:  13    -0.108479969649E+02   -0.34923E-05   -0.16758E-06  1053   0.284E-03
   1 F= -.11286514E+02 E0= -.11286514E+02  d E =-.112865E+02  mag=    -0.0001
 curvature:   0.00 expect dE= 0.000E+00 dE for cont linesearch  0.000E+00
 trial: gam= 0.00000 g(F)=  0.286E-44 g(S)=  0.381E-01 ort = 0.000E+00 (trialstep = 0.100E+01)
 search vector abs. value=  0.381E-01
 bond charge predicted
       N       E                     dE             d eps       ncg     rms          rms(c)
DAV:   1    -0.108308773132E+02    0.17116E-01   -0.61419E-01  2088   0.101E+00    0.823E-01
RMM:   2    -0.108203801440E+02    0.10497E-01   -0.98622E-04  1440   0.857E-02    0.438E-01
RMM:   3    -0.108151257755E+02    0.52544E-02   -0.10505E-03  1440   0.611E-02    0.149E-01
RMM:   4    -0.108151234782E+02    0.22972E-05   -0.11429E-05  1434   0.815E-03
   2 F= -.11292647E+02 E0= -.11292647E+02  d E =-.613314E-02  mag=    -0.0001
 trial-energy change:   -0.006133  1 .order   -0.005283   -0.038056    0.027490
 step:   0.5993(harm=  0.5806)  dis= 0.00000  next Energy=   -11.298100 (dE=-0.116E-01)
 bond charge predicted
       N       E                     dE             d eps       ncg     rms          rms(c)
DAV:   1    -0.108390309933E+02   -0.23905E-01   -0.96045E-02  1908   0.396E-01    0.326E-01
RMM:   2    -0.108374450698E+02    0.15859E-02   -0.17180E-04  1440   0.363E-02    0.178E-01
RMM:   3    -0.108366467212E+02    0.79835E-03   -0.14573E-04  1440   0.228E-02    0.742E-02
RMM:   4    -0.108366421302E+02    0.45910E-05   -0.21849E-06  1127   0.367E-03
   3 F= -.11298380E+02 E0= -.11298380E+02  d E =-.118658E-01  mag=     0.0000
 curvature:  -0.29 expect dE=-0.242E-05 dE for cont linesearch -0.242E-05
 trial: gam= 0.00000 g(F)=  0.199E-43 g(S)=  0.834E-05 ort =-0.563E-03 (trialstep = 0.920E+00)
 search vector abs. value=  0.834E-05
 reached required accuracy - stopping structural energy minimisation
