unknown system                          
           1
     3.799331   -0.000000   -0.000000
     1.899666    3.290318   -0.000000
     1.899666    1.096773    3.102141
   Si
   2
Direct configuration=     1
   0.74999998  0.74999998  0.75000000
   0.50000001  0.49999999  0.50000000
unknown system                          
           1
     3.826437   -0.000000   -0.000000
     1.913218    3.313792   -0.000000
     1.913218    1.104597    3.124273
   Si
   2
Direct configuration=     2
   0.74999998  0.74999998  0.75000000
   0.50000001  0.49999999  0.50000000
unknown system                          
           1
     3.826437   -0.000000   -0.000000
     1.913218    3.313792   -0.000000
     1.913218    1.104597    3.124273
   Si
   2
Direct configuration=     3
   0.74999998  0.74999998  0.75000000
   0.50000001  0.49999999  0.50000000
