   2   2   1   0
  0.1980791E+02  0.3826437E-09  0.3826437E-09  0.3826437E-09  0.5000000E-15
  1.000000000000000E-004
  CAR 
 unknown system                          
     51.33929986     -8.83143615 1000      5.98726395      1.00000000
     -8.831  0.0000E+00  0.0000E+00  0.0000E+00  0.0000E+00
     -8.771  0.0000E+00  0.0000E+00  0.0000E+00  0.0000E+00
     -8.711  0.0000E+00  0.0000E+00  0.0000E+00  0.0000E+00
     -8.651  0.0000E+00  0.0000E+00  0.0000E+00  0.0000E+00
     -8.591  0.0000E+00  0.0000E+00  0.0000E+00  0.0000E+00
     -8.530  0.0000E+00  0.0000E+00  0.0000E+00  0.0000E+00
     -8.470  0.0000E+00  0.0000E+00  0.0000E+00  0.0000E+00
     -8.410  0.0000E+00  0.0000E+00  0.0000E+00  0.0000E+00
     -8.350  0.0000E+00  0.0000E+00  0.0000E+00  0.0000E+00
     -8.289  0.0000E+00  0.0000E+00  0.0000E+00  0.0000E+00
     -8.229  0.0000E+00  0.0000E+00  0.0000E+00  0.0000E+00
     -8.169  0.0000E+00  0.0000E+00  0.0000E+00  0.0000E+00
     -8.109  0.0000E+00  0.0000E+00  0.0000E+00  0.0000E+00
     -8.048  0.0000E+00  0.0000E+00  0.0000E+00  0.0000E+00
     -7.988  0.0000E+00  0.0000E+00  0.0000E+00  0.0000E+00
     -7.928  0.0000E+00  0.0000E+00  0.0000E+00  0.0000E+00
     -7.868  0.0000E+00  0.0000E+00  0.0000E+00  0.0000E+00
     -7.808  0.0000E+00  0.0000E+00  0.0000E+00  0.0000E+00
     -7.747  0.0000E+00  0.0000E+00  0.0000E+00  0.0000E+00
     -7.687  0.0000E+00  0.0000E+00  0.0000E+00  0.0000E+00
     -7.627  0.0000E+00  0.0000E+00  0.0000E+00  0.0000E+00
     -7.567  0.0000E+00  0.0000E+00  0.0000E+00  0.0000E+00
     -7.506  0.0000E+00  0.0000E+00  0.0000E+00  0.0000E+00
     -7.446  0.0000E+00  0.0000E+00  0.0000E+00  0.0000E+00
     -7.386  0.0000E+00  0.0000E+00  0.0000E+00  0.0000E+00
     -7.326  0.0000E+00  0.0000E+00  0.0000E+00  0.0000E+00
     -7.265  0.0000E+00  0.0000E+00  0.0000E+00  0.0000E+00
     -7.205  0.0000E+00  0.0000E+00  0.0000E+00  0.0000E+00
     -7.145  0.0000E+00  0.0000E+00  0.0000E+00  0.0000E+00
     -7.085  0.0000E+00  0.0000E+00  0.0000E+00  0.0000E+00
     -7.025  0.0000E+00  0.0000E+00  0.0000E+00  0.0000E+00
     -6.964  0.0000E+00  0.0000E+00  0.0000E+00  0.0000E+00
     -6.904  0.0000E+00  0.0000E+00  0.0000E+00  0.0000E+00
     -6.844  0.0000E+00  0.0000E+00  0.0000E+00  0.0000E+00
     -6.784  0.0000E+00  0.0000E+00  0.0000E+00  0.0000E+00
     -6.723  0.0000E+00  0.0000E+00  0.0000E+00  0.0000E+00
     -6.663  0.0000E+00  0.0000E+00  0.0000E+00  0.0000E+00
     -6.603  0.0000E+00  0.0000E+00  0.0000E+00  0.0000E+00
     -6.543  0.0000E+00  0.0000E+00  0.0000E+00  0.0000E+00
     -6.482  0.0000E+00  0.0000E+00  0.0000E+00  0.0000E+00
     -6.422  0.0000E+00  0.0000E+00  0.0000E+00  0.0000E+00
     -6.362  0.0000E+00  0.0000E+00  0.0000E+00  0.0000E+00
     -6.302  0.0000E+00  0.0000E+00  0.0000E+00  0.0000E+00
     -6.242  0.0000E+00  0.0000E+00  0.0000E+00  0.0000E+00
     -6.181  0.0000E+00  0.0000E+00  0.0000E+00  0.0000E+00
     -6.121  0.0000E+00  0.0000E+00  0.0000E+00  0.0000E+00
     -6.061  0.2783E-01  0.2782E-01  0.4870E-03  0.4882E-03
     -6.001  0.5177E-01  0.5178E-01  0.2852E-02  0.2854E-02
     -5.940  0.6476E-01  0.6477E-01  0.6299E-02  0.6302E-02
     -5.880  0.7771E-01  0.7772E-01  0.1065E-01  0.1065E-01
     -5.820  0.8794E-01  0.8795E-01  0.1562E-01  0.1563E-01
     -5.760  0.9952E-01  0.9952E-01  0.2129E-01  0.2129E-01
     -5.699  0.1069E+00  0.1070E+00  0.2749E-01  0.2749E-01
     -5.639  0.1158E+00  0.1158E+00  0.3419E-01  0.3419E-01
     -5.579  0.1246E+00  0.1246E+00  0.4145E-01  0.4145E-01
     -5.519  0.1312E+00  0.1312E+00  0.4915E-01  0.4915E-01
     -5.459  0.1387E+00  0.1387E+00  0.5728E-01  0.5728E-01
     -5.398  0.1466E+00  0.1466E+00  0.6586E-01  0.6587E-01
     -5.338  0.1533E+00  0.1533E+00  0.7491E-01  0.7491E-01
     -5.278  0.1594E+00  0.1595E+00  0.8433E-01  0.8433E-01
     -5.218  0.1663E+00  0.1663E+00  0.9413E-01  0.9414E-01
     -5.157  0.1734E+00  0.1734E+00  0.1044E+00  0.1044E+00
     -5.097  0.1798E+00  0.1798E+00  0.1150E+00  0.1150E+00
     -5.037  0.1858E+00  0.1858E+00  0.1260E+00  0.1260E+00
     -4.977  0.1920E+00  0.1920E+00  0.1374E+00  0.1374E+00
     -4.916  0.1987E+00  0.1987E+00  0.1492E+00  0.1492E+00
     -4.856  0.2056E+00  0.2056E+00  0.1613E+00  0.1613E+00
     -4.796  0.2116E+00  0.2116E+00  0.1739E+00  0.1739E+00
     -4.736  0.2178E+00  0.2178E+00  0.1868E+00  0.1868E+00
     -4.675  0.2243E+00  0.2243E+00  0.2001E+00  0.2001E+00
     -4.615  0.2311E+00  0.2311E+00  0.2139E+00  0.2139E+00
     -4.555  0.2383E+00  0.2383E+00  0.2280E+00  0.2280E+00
     -4.495  0.2451E+00  0.2451E+00  0.2426E+00  0.2426E+00
     -4.435  0.2521E+00  0.2521E+00  0.2575E+00  0.2575E+00
     -4.374  0.2595E+00  0.2595E+00  0.2729E+00  0.2729E+00
     -4.314  0.2675E+00  0.2675E+00  0.2888E+00  0.2888E+00
     -4.254  0.2758E+00  0.2758E+00  0.3052E+00  0.3052E+00
     -4.194  0.2848E+00  0.2848E+00  0.3220E+00  0.3220E+00
     -4.133  0.2941E+00  0.2941E+00  0.3395E+00  0.3395E+00
     -4.073  0.3044E+00  0.3044E+00  0.3575E+00  0.3575E+00
     -4.013  0.3162E+00  0.3162E+00  0.3762E+00  0.3762E+00
     -3.953  0.3299E+00  0.3299E+00  0.3956E+00  0.3956E+00
     -3.892  0.3461E+00  0.3461E+00  0.4160E+00  0.4160E+00
     -3.832  0.3678E+00  0.3678E+00  0.4374E+00  0.4374E+00
     -3.772  0.4030E+00  0.4030E+00  0.4605E+00  0.4605E+00
     -3.712  0.4443E+00  0.4444E+00  0.4863E+00  0.4863E+00
     -3.652  0.4343E+00  0.4343E+00  0.5133E+00  0.5133E+00
     -3.591  0.4241E+00  0.4241E+00  0.5392E+00  0.5392E+00
     -3.531  0.4091E+00  0.4091E+00  0.5644E+00  0.5644E+00
     -3.471  0.4101E+00  0.4101E+00  0.5891E+00  0.5891E+00
     -3.411  0.3946E+00  0.3946E+00  0.6133E+00  0.6133E+00
     -3.350  0.3848E+00  0.3848E+00  0.6368E+00  0.6368E+00
     -3.290  0.3761E+00  0.3761E+00  0.6597E+00  0.6597E+00
     -3.230  0.3634E+00  0.3634E+00  0.6820E+00  0.6820E+00
     -3.170  0.3546E+00  0.3546E+00  0.7036E+00  0.7036E+00
     -3.109  0.3471E+00  0.3470E+00  0.7247E+00  0.7247E+00
     -3.049  0.3352E+00  0.3351E+00  0.7453E+00  0.7453E+00
     -2.989  0.3234E+00  0.3234E+00  0.7651E+00  0.7651E+00
     -2.929  0.3143E+00  0.3143E+00  0.7843E+00  0.7843E+00
     -2.869  0.3050E+00  0.3050E+00  0.8030E+00  0.8030E+00
     -2.808  0.2947E+00  0.2947E+00  0.8210E+00  0.8210E+00
     -2.748  0.2821E+00  0.2821E+00  0.8384E+00  0.8384E+00
     -2.688  0.2721E+00  0.2721E+00  0.8551E+00  0.8551E+00
     -2.628  0.2625E+00  0.2625E+00  0.8712E+00  0.8712E+00
     -2.567  0.2514E+00  0.2514E+00  0.8867E+00  0.8867E+00
     -2.507  0.2387E+00  0.2387E+00  0.9014E+00  0.9014E+00
     -2.447  0.2272E+00  0.2272E+00  0.9154E+00  0.9154E+00
     -2.387  0.2174E+00  0.2174E+00  0.9288E+00  0.9288E+00
     -2.326  0.2054E+00  0.2054E+00  0.9416E+00  0.9416E+00
     -2.266  0.1926E+00  0.1926E+00  0.9535E+00  0.9535E+00
     -2.206  0.1867E+00  0.1867E+00  0.9649E+00  0.9650E+00
     -2.146  0.1733E+00  0.1733E+00  0.9762E+00  0.9762E+00
     -2.086  0.1382E+00  0.1382E+00  0.9856E+00  0.9856E+00
     -2.025  0.1064E+00  0.1063E+00  0.9929E+00  0.9929E+00
     -1.965  0.7488E-01  0.7487E-01  0.9986E+00  0.9986E+00
     -1.905  0.0000E+00  0.0000E+00  0.1000E+01  0.1000E+01
     -1.845  0.3185E-02  0.3187E-02  0.1000E+01  0.1000E+01
     -1.784  0.1387E-01  0.1387E-01  0.1001E+01  0.1001E+01
     -1.724  0.3199E-01  0.3200E-01  0.1002E+01  0.1002E+01
     -1.664  0.5591E-01  0.5592E-01  0.1005E+01  0.1005E+01
     -1.604  0.9077E-01  0.9077E-01  0.1009E+01  0.1009E+01
     -1.543  0.1468E+00  0.1468E+00  0.1016E+01  0.1016E+01
     -1.483  0.1433E+00  0.1433E+00  0.1025E+01  0.1025E+01
     -1.423  0.1668E+00  0.1668E+00  0.1035E+01  0.1035E+01
     -1.363  0.1817E+00  0.1817E+00  0.1045E+01  0.1045E+01
     -1.303  0.2019E+00  0.2019E+00  0.1057E+01  0.1057E+01
     -1.242  0.2201E+00  0.2201E+00  0.1069E+01  0.1069E+01
     -1.182  0.2380E+00  0.2380E+00  0.1083E+01  0.1083E+01
     -1.122  0.2599E+00  0.2599E+00  0.1098E+01  0.1098E+01
     -1.062  0.2892E+00  0.2892E+00  0.1114E+01  0.1114E+01
     -1.001  0.4695E+00  0.4697E+00  0.1137E+01  0.1137E+01
     -0.941  0.5879E+00  0.5881E+00  0.1169E+01  0.1169E+01
     -0.881  0.9585E+00  0.9590E+00  0.1215E+01  0.1215E+01
     -0.821  0.7079E+00  0.7078E+00  0.1270E+01  0.1270E+01
     -0.760  0.5727E+00  0.5726E+00  0.1308E+01  0.1308E+01
     -0.700  0.4975E+00  0.4974E+00  0.1340E+01  0.1340E+01
     -0.640  0.4495E+00  0.4494E+00  0.1368E+01  0.1368E+01
     -0.580  0.4108E+00  0.4108E+00  0.1394E+01  0.1394E+01
     -0.520  0.3819E+00  0.3819E+00  0.1418E+01  0.1418E+01
     -0.459  0.3604E+00  0.3604E+00  0.1440E+01  0.1440E+01
     -0.399  0.3414E+00  0.3414E+00  0.1462E+01  0.1462E+01
     -0.339  0.3238E+00  0.3238E+00  0.1482E+01  0.1482E+01
     -0.279  0.3068E+00  0.3068E+00  0.1501E+01  0.1501E+01
     -0.218  0.2902E+00  0.2902E+00  0.1519E+01  0.1519E+01
     -0.158  0.2786E+00  0.2786E+00  0.1536E+01  0.1536E+01
     -0.098  0.2685E+00  0.2685E+00  0.1552E+01  0.1552E+01
     -0.038  0.2587E+00  0.2587E+00  0.1568E+01  0.1568E+01
      0.023  0.2487E+00  0.2487E+00  0.1583E+01  0.1583E+01
      0.083  0.2391E+00  0.2391E+00  0.1598E+01  0.1598E+01
      0.143  0.2285E+00  0.2285E+00  0.1612E+01  0.1612E+01
      0.203  0.2189E+00  0.2189E+00  0.1626E+01  0.1626E+01
      0.263  0.2125E+00  0.2125E+00  0.1639E+01  0.1639E+01
      0.324  0.2062E+00  0.2062E+00  0.1651E+01  0.1651E+01
      0.384  0.1999E+00  0.1999E+00  0.1663E+01  0.1663E+01
      0.444  0.1937E+00  0.1937E+00  0.1675E+01  0.1675E+01
      0.504  0.1866E+00  0.1866E+00  0.1687E+01  0.1687E+01
      0.565  0.1796E+00  0.1796E+00  0.1698E+01  0.1698E+01
      0.625  0.1718E+00  0.1718E+00  0.1708E+01  0.1708E+01
      0.685  0.1671E+00  0.1671E+00  0.1718E+01  0.1718E+01
      0.745  0.1628E+00  0.1628E+00  0.1728E+01  0.1728E+01
      0.806  0.1585E+00  0.1585E+00  0.1738E+01  0.1738E+01
      0.866  0.1539E+00  0.1539E+00  0.1748E+01  0.1748E+01
      0.926  0.1490E+00  0.1490E+00  0.1757E+01  0.1757E+01
      0.986  0.1441E+00  0.1441E+00  0.1765E+01  0.1765E+01
      1.046  0.1382E+00  0.1382E+00  0.1774E+01  0.1774E+01
      1.107  0.1328E+00  0.1328E+00  0.1782E+01  0.1782E+01
      1.167  0.1294E+00  0.1294E+00  0.1790E+01  0.1790E+01
      1.227  0.1262E+00  0.1262E+00  0.1798E+01  0.1798E+01
      1.287  0.1229E+00  0.1229E+00  0.1805E+01  0.1805E+01
      1.348  0.1196E+00  0.1196E+00  0.1813E+01  0.1813E+01
      1.408  0.1163E+00  0.1163E+00  0.1820E+01  0.1820E+01
      1.468  0.1123E+00  0.1123E+00  0.1827E+01  0.1827E+01
      1.528  0.2297E+00  0.2299E+00  0.1836E+01  0.1836E+01
      1.589  0.3048E+00  0.3050E+00  0.1852E+01  0.1852E+01
      1.649  0.3886E+00  0.3887E+00  0.1873E+01  0.1873E+01
      1.709  0.4719E+00  0.4720E+00  0.1899E+01  0.1899E+01
      1.769  0.6295E+00  0.6270E+00  0.1932E+01  0.1932E+01
      1.829  0.6285E+00  0.6285E+00  0.1969E+01  0.1969E+01
      1.890  0.5916E+00  0.5915E+00  0.2006E+01  0.2006E+01
      1.950  0.5528E+00  0.5528E+00  0.2041E+01  0.2041E+01
      2.010  0.5397E+00  0.5397E+00  0.2074E+01  0.2074E+01
      2.070  0.5146E+00  0.5146E+00  0.2106E+01  0.2106E+01
      2.131  0.4988E+00  0.4988E+00  0.2137E+01  0.2137E+01
      2.191  0.4856E+00  0.4856E+00  0.2166E+01  0.2166E+01
      2.251  0.5006E+00  0.5006E+00  0.2196E+01  0.2196E+01
      2.311  0.5221E+00  0.5222E+00  0.2227E+01  0.2227E+01
      2.372  0.5046E+00  0.5046E+00  0.2258E+01  0.2258E+01
      2.432  0.5142E+00  0.5142E+00  0.2288E+01  0.2289E+01
      2.492  0.5216E+00  0.5216E+00  0.2320E+01  0.2320E+01
      2.552  0.5273E+00  0.5273E+00  0.2352E+01  0.2352E+01
      2.612  0.5372E+00  0.5372E+00  0.2384E+01  0.2384E+01
      2.673  0.5467E+00  0.5467E+00  0.2417E+01  0.2417E+01
      2.733  0.5681E+00  0.5682E+00  0.2450E+01  0.2450E+01
      2.793  0.5780E+00  0.5780E+00  0.2485E+01  0.2485E+01
      2.853  0.5943E+00  0.5943E+00  0.2520E+01  0.2520E+01
      2.914  0.6120E+00  0.6120E+00  0.2556E+01  0.2556E+01
      2.974  0.6849E+00  0.6849E+00  0.2595E+01  0.2595E+01
      3.034  0.7334E+00  0.7334E+00  0.2637E+01  0.2637E+01
      3.094  0.7626E+00  0.7626E+00  0.2683E+01  0.2683E+01
      3.155  0.7500E+00  0.7500E+00  0.2728E+01  0.2728E+01
      3.215  0.7441E+00  0.7440E+00  0.2773E+01  0.2773E+01
      3.275  0.7402E+00  0.7402E+00  0.2818E+01  0.2818E+01
      3.335  0.7278E+00  0.7278E+00  0.2862E+01  0.2862E+01
      3.395  0.7193E+00  0.7192E+00  0.2906E+01  0.2906E+01
      3.456  0.7107E+00  0.7107E+00  0.2949E+01  0.2949E+01
      3.516  0.6974E+00  0.6974E+00  0.2991E+01  0.2991E+01
      3.576  0.6949E+00  0.6949E+00  0.3033E+01  0.3033E+01
      3.636  0.6917E+00  0.6917E+00  0.3075E+01  0.3075E+01
      3.697  0.6817E+00  0.6817E+00  0.3116E+01  0.3116E+01
      3.757  0.6696E+00  0.6696E+00  0.3157E+01  0.3157E+01
      3.817  0.6604E+00  0.6603E+00  0.3197E+01  0.3197E+01
      3.877  0.6557E+00  0.6557E+00  0.3237E+01  0.3237E+01
      3.938  0.6451E+00  0.6451E+00  0.3276E+01  0.3276E+01
      3.998  0.6350E+00  0.6350E+00  0.3314E+01  0.3315E+01
      4.058  0.6325E+00  0.6325E+00  0.3353E+01  0.3353E+01
      4.118  0.6266E+00  0.6265E+00  0.3391E+01  0.3391E+01
      4.178  0.6216E+00  0.6216E+00  0.3428E+01  0.3428E+01
      4.239  0.6117E+00  0.6117E+00  0.3465E+01  0.3465E+01
      4.299  0.6037E+00  0.6037E+00  0.3502E+01  0.3502E+01
      4.359  0.5990E+00  0.5989E+00  0.3538E+01  0.3538E+01
      4.419  0.5934E+00  0.5934E+00  0.3574E+01  0.3574E+01
      4.480  0.5864E+00  0.5864E+00  0.3610E+01  0.3610E+01
      4.540  0.5893E+00  0.5893E+00  0.3645E+01  0.3645E+01
      4.600  0.5801E+00  0.5801E+00  0.3680E+01  0.3680E+01
      4.660  0.5717E+00  0.5717E+00  0.3715E+01  0.3715E+01
      4.721  0.5268E+00  0.5268E+00  0.3749E+01  0.3749E+01
      4.781  0.4328E+00  0.4328E+00  0.3777E+01  0.3777E+01
      4.841  0.3824E+00  0.3824E+00  0.3802E+01  0.3802E+01
      4.901  0.3505E+00  0.3505E+00  0.3824E+01  0.3824E+01
      4.961  0.3205E+00  0.3205E+00  0.3844E+01  0.3844E+01
      5.022  0.2956E+00  0.2956E+00  0.3862E+01  0.3862E+01
      5.082  0.2705E+00  0.2705E+00  0.3879E+01  0.3879E+01
      5.142  0.2478E+00  0.2478E+00  0.3895E+01  0.3895E+01
      5.202  0.2288E+00  0.2288E+00  0.3909E+01  0.3909E+01
      5.263  0.2095E+00  0.2095E+00  0.3923E+01  0.3923E+01
      5.323  0.1922E+00  0.1922E+00  0.3935E+01  0.3935E+01
      5.383  0.1756E+00  0.1756E+00  0.3946E+01  0.3946E+01
      5.443  0.1587E+00  0.1587E+00  0.3956E+01  0.3956E+01
      5.504  0.1421E+00  0.1422E+00  0.3965E+01  0.3965E+01
      5.564  0.1255E+00  0.1255E+00  0.3973E+01  0.3973E+01
      5.624  0.1164E+00  0.1164E+00  0.3980E+01  0.3980E+01
      5.684  0.9892E-01  0.9893E-01  0.3987E+01  0.3987E+01
      5.744  0.8061E-01  0.8062E-01  0.3992E+01  0.3992E+01
      5.805  0.5927E-01  0.5930E-01  0.3996E+01  0.3996E+01
      5.865  0.3438E-01  0.3440E-01  0.3999E+01  0.3999E+01
      5.925  0.6359E-03  0.6433E-03  0.4000E+01  0.4000E+01
      5.985  0.0000E+00  0.0000E+00  0.4000E+01  0.4000E+01
      6.046  0.0000E+00  0.0000E+00  0.4000E+01  0.4000E+01
      6.106  0.0000E+00  0.0000E+00  0.4000E+01  0.4000E+01
      6.166  0.0000E+00  0.0000E+00  0.4000E+01  0.4000E+01
      6.226  0.0000E+00  0.0000E+00  0.4000E+01  0.4000E+01
      6.287  0.0000E+00  0.0000E+00  0.4000E+01  0.4000E+01
      6.347  0.0000E+00  0.0000E+00  0.4000E+01  0.4000E+01
      6.407  0.0000E+00  0.0000E+00  0.4000E+01  0.4000E+01
      6.467  0.0000E+00  0.0000E+00  0.4000E+01  0.4000E+01
      6.527  0.9595E-02  0.9669E-02  0.4000E+01  0.4000E+01
      6.588  0.4668E-01  0.4677E-01  0.4002E+01  0.4002E+01
      6.648  0.7829E-01  0.7836E-01  0.4006E+01  0.4006E+01
      6.708  0.1009E+00  0.1009E+00  0.4011E+01  0.4011E+01
      6.768  0.1267E+00  0.1268E+00  0.4018E+01  0.4018E+01
      6.829  0.1546E+00  0.1547E+00  0.4026E+01  0.4026E+01
      6.889  0.1730E+00  0.1730E+00  0.4036E+01  0.4036E+01
      6.949  0.1860E+00  0.1861E+00  0.4047E+01  0.4047E+01
      7.009  0.2023E+00  0.2023E+00  0.4059E+01  0.4059E+01
      7.070  0.2179E+00  0.2180E+00  0.4071E+01  0.4071E+01
      7.130  0.2331E+00  0.2331E+00  0.4085E+01  0.4085E+01
      7.190  0.2489E+00  0.2490E+00  0.4099E+01  0.4100E+01
      7.250  0.2651E+00  0.2652E+00  0.4115E+01  0.4115E+01
      7.310  0.2828E+00  0.2828E+00  0.4131E+01  0.4131E+01
      7.371  0.3021E+00  0.3021E+00  0.4149E+01  0.4149E+01
      7.431  0.3195E+00  0.3195E+00  0.4168E+01  0.4168E+01
      7.491  0.3324E+00  0.3324E+00  0.4187E+01  0.4188E+01
      7.551  0.3483E+00  0.3483E+00  0.4208E+01  0.4208E+01
      7.612  0.3757E+00  0.3758E+00  0.4230E+01  0.4230E+01
      7.672  0.4097E+00  0.4098E+00  0.4253E+01  0.4253E+01
      7.732  0.4454E+00  0.4455E+00  0.4279E+01  0.4279E+01
      7.792  0.4711E+00  0.4712E+00  0.4307E+01  0.4307E+01
      7.853  0.5028E+00  0.5028E+00  0.4336E+01  0.4336E+01
      7.913  0.5368E+00  0.5368E+00  0.4367E+01  0.4367E+01
      7.973  0.5735E+00  0.5735E+00  0.4401E+01  0.4401E+01
      8.033  0.6131E+00  0.6131E+00  0.4436E+01  0.4436E+01
      8.093  0.6782E+00  0.6785E+00  0.4475E+01  0.4475E+01
      8.154  0.8021E+00  0.8022E+00  0.4520E+01  0.4521E+01
      8.214  0.8362E+00  0.8362E+00  0.4570E+01  0.4570E+01
      8.274  0.8353E+00  0.8352E+00  0.4620E+01  0.4621E+01
      8.334  0.8345E+00  0.8345E+00  0.4670E+01  0.4670E+01
      8.395  0.7811E+00  0.7810E+00  0.4719E+01  0.4720E+01
      8.455  0.7738E+00  0.7738E+00  0.4766E+01  0.4766E+01
      8.515  0.7527E+00  0.7526E+00  0.4813E+01  0.4813E+01
      8.575  0.6970E+00  0.6969E+00  0.4856E+01  0.4856E+01
      8.636  0.6742E+00  0.6742E+00  0.4897E+01  0.4897E+01
      8.696  0.6054E+00  0.6053E+00  0.4937E+01  0.4937E+01
      8.756  0.5754E+00  0.5754E+00  0.4972E+01  0.4972E+01
      8.816  0.5618E+00  0.5617E+00  0.5006E+01  0.5006E+01
      8.876  0.5465E+00  0.5465E+00  0.5039E+01  0.5039E+01
      8.937  0.5717E+00  0.5718E+00  0.5073E+01  0.5073E+01
      8.997  0.5537E+00  0.5535E+00  0.5107E+01  0.5107E+01
      9.057  0.4451E+00  0.4450E+00  0.5138E+01  0.5138E+01
      9.117  0.4441E+00  0.4441E+00  0.5164E+01  0.5165E+01
      9.178  0.6975E+00  0.6993E+00  0.5195E+01  0.5195E+01
      9.238  0.1072E+01  0.1072E+01  0.5254E+01  0.5254E+01
      9.298  0.1095E+01  0.1095E+01  0.5323E+01  0.5323E+01
      9.358  0.1026E+01  0.1026E+01  0.5386E+01  0.5386E+01
      9.419  0.9333E+00  0.9331E+00  0.5445E+01  0.5445E+01
      9.479  0.9219E+00  0.9226E+00  0.5500E+01  0.5500E+01
      9.539  0.8285E+00  0.8284E+00  0.5552E+01  0.5552E+01
      9.599  0.9670E+00  0.9666E+00  0.5603E+01  0.5603E+01
      9.659  0.9104E+00  0.9104E+00  0.5658E+01  0.5659E+01
      9.720  0.8799E+00  0.8798E+00  0.5712E+01  0.5713E+01
      9.780  0.8352E+00  0.8350E+00  0.5764E+01  0.5764E+01
      9.840  0.8042E+00  0.8043E+00  0.5813E+01  0.5813E+01
      9.900  0.7416E+00  0.7414E+00  0.5860E+01  0.5860E+01
      9.961  0.6788E+00  0.6787E+00  0.5902E+01  0.5902E+01
     10.021  0.6233E+00  0.6232E+00  0.5942E+01  0.5942E+01
     10.081  0.5699E+00  0.5698E+00  0.5979E+01  0.5979E+01
     10.141  0.5504E+00  0.5504E+00  0.6013E+01  0.6013E+01
     10.202  0.5466E+00  0.5466E+00  0.6046E+01  0.6046E+01
     10.262  0.5413E+00  0.5413E+00  0.6078E+01  0.6078E+01
     10.322  0.5530E+00  0.5531E+00  0.6111E+01  0.6111E+01
     10.382  0.5887E+00  0.5888E+00  0.6146E+01  0.6146E+01
     10.442  0.7050E+00  0.7051E+00  0.6185E+01  0.6185E+01
     10.503  0.7086E+00  0.7084E+00  0.6228E+01  0.6228E+01
     10.563  0.6031E+00  0.6031E+00  0.6266E+01  0.6266E+01
     10.623  0.5878E+00  0.5877E+00  0.6302E+01  0.6302E+01
     10.683  0.5890E+00  0.5890E+00  0.6337E+01  0.6337E+01
     10.744  0.6083E+00  0.6084E+00  0.6373E+01  0.6373E+01
     10.804  0.6771E+00  0.6771E+00  0.6412E+01  0.6412E+01
     10.864  0.6279E+00  0.6278E+00  0.6452E+01  0.6452E+01
     10.924  0.5875E+00  0.5874E+00  0.6488E+01  0.6488E+01
     10.985  0.5706E+00  0.5705E+00  0.6523E+01  0.6523E+01
     11.045  0.5599E+00  0.5599E+00  0.6557E+01  0.6557E+01
     11.105  0.5835E+00  0.5836E+00  0.6591E+01  0.6591E+01
     11.165  0.5997E+00  0.5998E+00  0.6627E+01  0.6627E+01
     11.225  0.6090E+00  0.6090E+00  0.6663E+01  0.6664E+01
     11.286  0.5761E+00  0.5761E+00  0.6700E+01  0.6700E+01
     11.346  0.5806E+00  0.5806E+00  0.6734E+01  0.6734E+01
     11.406  0.5787E+00  0.5787E+00  0.6769E+01  0.6769E+01
     11.466  0.6035E+00  0.6036E+00  0.6805E+01  0.6805E+01
     11.527  0.6105E+00  0.6105E+00  0.6842E+01  0.6842E+01
     11.587  0.5718E+00  0.5717E+00  0.6877E+01  0.6877E+01
     11.647  0.5566E+00  0.5566E+00  0.6911E+01  0.6911E+01
     11.707  0.5611E+00  0.5611E+00  0.6945E+01  0.6945E+01
     11.768  0.5421E+00  0.5421E+00  0.6978E+01  0.6978E+01
     11.828  0.5020E+00  0.5020E+00  0.7009E+01  0.7010E+01
     11.888  0.4961E+00  0.4961E+00  0.7040E+01  0.7040E+01
     11.948  0.4948E+00  0.4948E+00  0.7069E+01  0.7069E+01
     12.008  0.5071E+00  0.5072E+00  0.7099E+01  0.7099E+01
     12.069  0.5492E+00  0.5492E+00  0.7131E+01  0.7131E+01
     12.129  0.5171E+00  0.5171E+00  0.7163E+01  0.7163E+01
     12.189  0.4973E+00  0.4973E+00  0.7194E+01  0.7194E+01
     12.249  0.4817E+00  0.4816E+00  0.7223E+01  0.7223E+01
     12.310  0.4707E+00  0.4707E+00  0.7252E+01  0.7252E+01
     12.370  0.4887E+00  0.4887E+00  0.7281E+01  0.7281E+01
     12.430  0.5060E+00  0.5060E+00  0.7311E+01  0.7311E+01
     12.490  0.5446E+00  0.5447E+00  0.7342E+01  0.7342E+01
     12.551  0.7437E+00  0.7440E+00  0.7379E+01  0.7379E+01
     12.611  0.6620E+00  0.6620E+00  0.7422E+01  0.7422E+01
     12.671  0.6879E+00  0.6880E+00  0.7462E+01  0.7462E+01
     12.731  0.6661E+00  0.6660E+00  0.7504E+01  0.7504E+01
     12.791  0.6371E+00  0.6370E+00  0.7543E+01  0.7543E+01
     12.852  0.6158E+00  0.6157E+00  0.7580E+01  0.7581E+01
     12.912  0.5870E+00  0.5870E+00  0.7617E+01  0.7617E+01
     12.972  0.5606E+00  0.5606E+00  0.7651E+01  0.7651E+01
     13.032  0.5323E+00  0.5322E+00  0.7684E+01  0.7684E+01
     13.093  0.5041E+00  0.5041E+00  0.7715E+01  0.7715E+01
     13.153  0.4905E+00  0.4905E+00  0.7745E+01  0.7745E+01
     13.213  0.4900E+00  0.4900E+00  0.7775E+01  0.7775E+01
     13.273  0.5606E+00  0.5608E+00  0.7805E+01  0.7806E+01
     13.334  0.5784E+00  0.5784E+00  0.7840E+01  0.7840E+01
     13.394  0.6043E+00  0.6044E+00  0.7876E+01  0.7876E+01
     13.454  0.6464E+00  0.6465E+00  0.7913E+01  0.7913E+01
     13.514  0.6692E+00  0.6692E+00  0.7953E+01  0.7953E+01
     13.574  0.6492E+00  0.6492E+00  0.7992E+01  0.7992E+01
     13.635  0.6407E+00  0.6407E+00  0.8031E+01  0.8031E+01
     13.695  0.6121E+00  0.6122E+00  0.8069E+01  0.8069E+01
     13.755  0.7037E+00  0.7041E+00  0.8107E+01  0.8108E+01
     13.815  0.6531E+00  0.6528E+00  0.8150E+01  0.8150E+01
     13.876  0.6203E+00  0.6202E+00  0.8188E+01  0.8188E+01
     13.936  0.6062E+00  0.6061E+00  0.8225E+01  0.8225E+01
     13.996  0.6017E+00  0.6017E+00  0.8261E+01  0.8261E+01
     14.056  0.5830E+00  0.5830E+00  0.8297E+01  0.8297E+01
     14.117  0.5547E+00  0.5546E+00  0.8331E+01  0.8331E+01
     14.177  0.5639E+00  0.5640E+00  0.8365E+01  0.8365E+01
     14.237  0.5758E+00  0.5758E+00  0.8399E+01  0.8399E+01
     14.297  0.5681E+00  0.5681E+00  0.8434E+01  0.8434E+01
     14.357  0.5710E+00  0.5710E+00  0.8468E+01  0.8468E+01
     14.418  0.5877E+00  0.5878E+00  0.8503E+01  0.8503E+01
     14.478  0.6097E+00  0.6097E+00  0.8539E+01  0.8539E+01
     14.538  0.6044E+00  0.6044E+00  0.8576E+01  0.8576E+01
     14.598  0.5978E+00  0.5978E+00  0.8612E+01  0.8612E+01
     14.659  0.5920E+00  0.5921E+00  0.8648E+01  0.8648E+01
     14.719  0.6007E+00  0.6008E+00  0.8684E+01  0.8684E+01
     14.779  0.6073E+00  0.6073E+00  0.8720E+01  0.8720E+01
     14.839  0.6143E+00  0.6143E+00  0.8757E+01  0.8757E+01
     14.900  0.6194E+00  0.6194E+00  0.8794E+01  0.8794E+01
     14.960  0.6237E+00  0.6238E+00  0.8831E+01  0.8831E+01
     15.020  0.6338E+00  0.6339E+00  0.8869E+01  0.8869E+01
     15.080  0.6602E+00  0.6602E+00  0.8908E+01  0.8908E+01
     15.140  0.6739E+00  0.6739E+00  0.8948E+01  0.8948E+01
     15.201  0.7130E+00  0.7131E+00  0.8990E+01  0.8990E+01
     15.261  0.7191E+00  0.7191E+00  0.9033E+01  0.9033E+01
     15.321  0.7247E+00  0.7247E+00  0.9077E+01  0.9077E+01
     15.381  0.7086E+00  0.7086E+00  0.9120E+01  0.9120E+01
     15.442  0.6963E+00  0.6962E+00  0.9162E+01  0.9162E+01
     15.502  0.6869E+00  0.6868E+00  0.9204E+01  0.9204E+01
     15.562  0.6795E+00  0.6795E+00  0.9245E+01  0.9245E+01
     15.622  0.6679E+00  0.6679E+00  0.9286E+01  0.9286E+01
     15.683  0.6595E+00  0.6594E+00  0.9326E+01  0.9326E+01
     15.743  0.6589E+00  0.6589E+00  0.9365E+01  0.9365E+01
     15.803  0.6619E+00  0.6619E+00  0.9405E+01  0.9405E+01
     15.863  0.6670E+00  0.6670E+00  0.9445E+01  0.9445E+01
     15.923  0.6896E+00  0.6884E+00  0.9486E+01  0.9486E+01
     15.984  0.6728E+00  0.6728E+00  0.9526E+01  0.9526E+01
     16.044  0.6676E+00  0.6677E+00  0.9566E+01  0.9566E+01
     16.104  0.6828E+00  0.6829E+00  0.9607E+01  0.9607E+01
     16.164  0.6665E+00  0.6664E+00  0.9650E+01  0.9650E+01
     16.225  0.6359E+00  0.6358E+00  0.9689E+01  0.9689E+01
     16.285  0.6173E+00  0.6173E+00  0.9727E+01  0.9727E+01
     16.345  0.6095E+00  0.6095E+00  0.9764E+01  0.9764E+01
     16.405  0.6070E+00  0.6070E+00  0.9801E+01  0.9801E+01
     16.466  0.5919E+00  0.5919E+00  0.9837E+01  0.9837E+01
     16.526  0.5785E+00  0.5785E+00  0.9872E+01  0.9872E+01
     16.586  0.5625E+00  0.5625E+00  0.9906E+01  0.9906E+01
     16.646  0.5525E+00  0.5525E+00  0.9940E+01  0.9940E+01
     16.706  0.5494E+00  0.5495E+00  0.9973E+01  0.9973E+01
     16.767  0.5886E+00  0.5887E+00  0.1001E+02  0.1001E+02
     16.827  0.5971E+00  0.5972E+00  0.1004E+02  0.1004E+02
     16.887  0.6481E+00  0.6482E+00  0.1008E+02  0.1008E+02
     16.947  0.6400E+00  0.6401E+00  0.1012E+02  0.1012E+02
     17.008  0.6652E+00  0.6651E+00  0.1016E+02  0.1016E+02
     17.068  0.6529E+00  0.6528E+00  0.1020E+02  0.1020E+02
     17.128  0.6617E+00  0.6615E+00  0.1024E+02  0.1024E+02
     17.188  0.6500E+00  0.6500E+00  0.1028E+02  0.1028E+02
     17.249  0.7451E+00  0.7450E+00  0.1032E+02  0.1032E+02
     17.309  0.6996E+00  0.6994E+00  0.1037E+02  0.1037E+02
     17.369  0.5598E+00  0.5598E+00  0.1040E+02  0.1040E+02
     17.429  0.5314E+00  0.5313E+00  0.1044E+02  0.1044E+02
     17.489  0.4870E+00  0.4870E+00  0.1047E+02  0.1047E+02
     17.550  0.4896E+00  0.4898E+00  0.1050E+02  0.1050E+02
     17.610  0.4978E+00  0.4979E+00  0.1053E+02  0.1053E+02
     17.670  0.5010E+00  0.5010E+00  0.1056E+02  0.1056E+02
     17.730  0.4950E+00  0.4950E+00  0.1059E+02  0.1059E+02
     17.791  0.5092E+00  0.5092E+00  0.1062E+02  0.1062E+02
     17.851  0.5501E+00  0.5501E+00  0.1065E+02  0.1065E+02
     17.911  0.5917E+00  0.5918E+00  0.1068E+02  0.1068E+02
     17.971  0.6283E+00  0.6283E+00  0.1072E+02  0.1072E+02
     18.032  0.6743E+00  0.6744E+00  0.1076E+02  0.1076E+02
     18.092  0.7442E+00  0.7443E+00  0.1080E+02  0.1080E+02
     18.152  0.7695E+00  0.7694E+00  0.1085E+02  0.1085E+02
     18.212  0.8359E+00  0.8360E+00  0.1089E+02  0.1089E+02
     18.272  0.9009E+00  0.9010E+00  0.1095E+02  0.1095E+02
     18.333  0.9787E+00  0.9784E+00  0.1100E+02  0.1100E+02
     18.393  0.9602E+00  0.9602E+00  0.1106E+02  0.1106E+02
     18.453  0.9251E+00  0.9251E+00  0.1112E+02  0.1112E+02
     18.513  0.8696E+00  0.8696E+00  0.1117E+02  0.1117E+02
     18.574  0.8543E+00  0.8543E+00  0.1122E+02  0.1122E+02
     18.634  0.8456E+00  0.8456E+00  0.1127E+02  0.1127E+02
     18.694  0.8369E+00  0.8369E+00  0.1132E+02  0.1132E+02
     18.754  0.8250E+00  0.8248E+00  0.1138E+02  0.1138E+02
     18.815  0.7549E+00  0.7550E+00  0.1142E+02  0.1142E+02
     18.875  0.7306E+00  0.7306E+00  0.1147E+02  0.1147E+02
     18.935  0.7182E+00  0.7183E+00  0.1151E+02  0.1151E+02
     18.995  0.7266E+00  0.7266E+00  0.1155E+02  0.1155E+02
     19.056  0.7358E+00  0.7358E+00  0.1160E+02  0.1160E+02
     19.116  0.7346E+00  0.7346E+00  0.1164E+02  0.1164E+02
     19.176  0.6998E+00  0.6997E+00  0.1169E+02  0.1169E+02
     19.236  0.6786E+00  0.6786E+00  0.1173E+02  0.1173E+02
     19.296  0.6755E+00  0.6755E+00  0.1177E+02  0.1177E+02
     19.357  0.6554E+00  0.6554E+00  0.1181E+02  0.1181E+02
     19.417  0.6557E+00  0.6557E+00  0.1185E+02  0.1185E+02
     19.477  0.6844E+00  0.6845E+00  0.1189E+02  0.1189E+02
     19.537  0.6905E+00  0.6906E+00  0.1193E+02  0.1193E+02
     19.598  0.7474E+00  0.7475E+00  0.1197E+02  0.1197E+02
     19.658  0.8031E+00  0.8032E+00  0.1202E+02  0.1202E+02
     19.718  0.8446E+00  0.8446E+00  0.1207E+02  0.1207E+02
     19.778  0.8816E+00  0.8817E+00  0.1212E+02  0.1212E+02
     19.839  0.9458E+00  0.9460E+00  0.1218E+02  0.1218E+02
     19.899  0.1019E+01  0.1019E+01  0.1224E+02  0.1224E+02
     19.959  0.1001E+01  0.1001E+01  0.1230E+02  0.1230E+02
     20.019  0.9262E+00  0.9261E+00  0.1235E+02  0.1235E+02
     20.079  0.9027E+00  0.9026E+00  0.1241E+02  0.1241E+02
     20.140  0.8719E+00  0.8718E+00  0.1246E+02  0.1246E+02
     20.200  0.8857E+00  0.8859E+00  0.1251E+02  0.1252E+02
     20.260  0.9630E+00  0.9634E+00  0.1257E+02  0.1257E+02
     20.320  0.8736E+00  0.8733E+00  0.1263E+02  0.1263E+02
     20.381  0.7490E+00  0.7485E+00  0.1268E+02  0.1268E+02
     20.441  0.6640E+00  0.6639E+00  0.1272E+02  0.1272E+02
     20.501  0.6174E+00  0.6173E+00  0.1276E+02  0.1276E+02
     20.561  0.5850E+00  0.5850E+00  0.1279E+02  0.1279E+02
     20.622  0.5752E+00  0.5752E+00  0.1283E+02  0.1283E+02
     20.682  0.5704E+00  0.5704E+00  0.1286E+02  0.1286E+02
     20.742  0.5780E+00  0.5780E+00  0.1290E+02  0.1290E+02
     20.802  0.6645E+00  0.6646E+00  0.1294E+02  0.1294E+02
     20.862  0.6592E+00  0.6592E+00  0.1298E+02  0.1298E+02
     20.923  0.6226E+00  0.6225E+00  0.1301E+02  0.1301E+02
     20.983  0.5965E+00  0.5965E+00  0.1305E+02  0.1305E+02