    2    2    1    2
  0.1980791E+02  0.3826437E-09  0.3826437E-09  0.3826437E-09  0.5000000E-15
  1.000000000000000E-004
  CAR 
 unknown system                          
      8    286     36
 
  0.0000000E+00  0.0000000E+00  0.0000000E+00  0.1079797E-03
    1       -6.096360     -6.096403   1.000000   1.000000
    2        5.935268      5.935329   1.000000   1.000000
    3        5.935269      5.935329   1.000000   1.000000
    4        5.935269      5.935329   1.000000   1.000000
    5        8.505052      8.504936   0.000000   0.000000
    6        8.505052      8.504936   0.000000   0.000000
    7        8.505053      8.504936   0.000000   0.000000
    8        9.433002      9.432918   0.000000   0.000000
    9       13.660253     13.660173   0.000000   0.000000
   10       13.660253     13.660173   0.000000   0.000000
   11       13.938216     13.938017   0.000000   0.000000
   12       17.224189     17.223948   0.000000   0.000000
   13       17.224189     17.223949   0.000000   0.000000
   14       17.224189     17.223949   0.000000   0.000000
   15       21.410886     21.410636   0.000000   0.000000
   16       29.168656     29.168527   0.000000   0.000000
   17       29.168657     29.168527   0.000000   0.000000
   18       29.168657     29.168528   0.000000   0.000000
   19       30.281672     30.281558   0.000000   0.000000
   20       30.281672     30.281558   0.000000   0.000000
   21       31.979106     31.979075   0.000000   0.000000
   22       31.979107     31.979075   0.000000   0.000000
   23       31.979108     31.979076   0.000000   0.000000
   24       35.298057     35.298024   0.000000   0.000000
   25       35.298057     35.298024   0.000000   0.000000
   26       35.298057     35.298024   0.000000   0.000000
   27       41.085800     41.085623   0.000000   0.000000
   28       41.085800     41.085623   0.000000   0.000000
   29       41.085800     41.085623   0.000000   0.000000
   30       44.566042     44.566006   0.000000   0.000000
   31       44.923298     44.923139   0.000000   0.000000
   32       44.923298     44.923140   0.000000   0.000000
   33       46.817614     46.817476   0.000000   0.000000
   34       46.817627     46.817542   0.000000   0.000000
   35       48.515566     48.515419   0.000000   0.000000
   36       48.515689     48.515638   0.000000   0.000000
 
  0.4761905E-01 -0.1058796E-17 -0.3469447E-17  0.8638376E-03
    1       -6.066314     -6.066356   1.000000   1.000000
    2        5.608912      5.608955   1.000000   1.000000
    3        5.884423      5.884480   1.000000   1.000000
    4        5.884423      5.884480   1.000000   1.000000
    5        8.568278      8.568170   0.000000   0.000000
    6        8.579587      8.579474   0.000000   0.000000
    7        8.579587      8.579474   0.000000   0.000000
    8        9.643836      9.643759   0.000000   0.000000
    9       13.558573     13.558486   0.000000   0.000000
   10       13.558573     13.558486   0.000000   0.000000
   11       14.070379     14.070182   0.000000   0.000000
   12       17.103346     17.103106   0.000000   0.000000
   13       17.422696     17.422462   0.000000   0.000000
   14       17.422696     17.422462   0.000000   0.000000
   15       21.622132     21.621883   0.000000   0.000000
   16       28.824242     28.824122   0.000000   0.000000
   17       28.857670     28.857548   0.000000   0.000000
   18       28.857670     28.857548   0.000000   0.000000
   19       30.069259     30.069148   0.000000   0.000000
   20       30.069259     30.069148   0.000000   0.000000
   21       32.151933     32.151897   0.000000   0.000000
   22       32.151933     32.151897   0.000000   0.000000
   23       32.279234     32.279193   0.000000   0.000000
   24       35.325388     35.325356   0.000000   0.000000
   25       35.708615     35.708576   0.000000   0.000000
   26       35.708616     35.708576   0.000000   0.000000
   27       40.636277     40.636111   0.000000   0.000000
   28       41.002691     41.002514   0.000000   0.000000
   29       41.002691     41.002514   0.000000   0.000000
   30       44.620867     44.620710   0.000000   0.000000
   31       44.620869     44.620711   0.000000   0.000000
   32       44.706847     44.706804   0.000000   0.000000
   33       46.385987     46.385863   0.000000   0.000000
   34       46.385994     46.385885   0.000000   0.000000
   35       48.491782     48.491529   0.000000   0.000000
   36       48.503478     48.519015   0.000000   0.000000
 
  0.9523810E-01 -0.2117592E-17 -0.6938894E-17  0.8638376E-03
    1       -5.976457     -5.976498   1.000000   1.000000
    2        4.873740      4.873760   1.000000   1.000000
    3        5.751294      5.751343   1.000000   1.000000
    4        5.751294      5.751343   1.000000   1.000000
    5        8.547460      8.547355   0.000000   0.000000
    6        8.776162      8.776056   0.000000   0.000000
    7        8.776162      8.776056   0.000000   0.000000
    8       10.256351     10.256287   0.000000   0.000000
    9       13.326063     13.325963   0.000000   0.000000
   10       13.326063     13.325963   0.000000   0.000000
   11       14.434660     14.434467   0.000000   0.000000
   12       16.826569     16.826330   0.000000   0.000000
   13       17.951523     17.951304   0.000000   0.000000
   14       17.951523     17.951304   0.000000   0.000000
   15       22.183942     22.183695   0.000000   0.000000
   16       27.902304     27.902197   0.000000   0.000000
   17       27.902305     27.902198   0.000000   0.000000
   18       28.051731     28.051622   0.000000   0.000000
   19       29.934427     29.934311   0.000000   0.000000
   20       29.934427     29.934311   0.000000   0.000000
   21       32.378235     32.378199   0.000000   0.000000
   22       32.378236     32.378200   0.000000   0.000000
   23       32.922402     32.922348   0.000000   0.000000
   24       35.406742     35.406711   0.000000   0.000000
   25       36.734375     36.734323   0.000000   0.000000
   26       36.734375     36.734323   0.000000   0.000000
   27       39.539498     39.539346   0.000000   0.000000
   28       40.766456     40.766279   0.000000   0.000000
   29       40.766456     40.766279   0.000000   0.000000
   30       43.763734     43.763580   0.000000   0.000000
   31       43.763734     43.763580   0.000000   0.000000
   32       44.974110     44.974057   0.000000   0.000000
   33       45.424017     45.423898   0.000000   0.000000
   34       45.424018     45.423899   0.000000   0.000000
   35       48.291541     48.291745   0.000000   0.000000
   36       48.293486     48.294222   0.000000   0.000000
 
  0.1428571E+00  0.2930584E-18  0.6938894E-17  0.8638376E-03
    1       -5.827708     -5.827749   1.000000   1.000000
    2        3.999902      3.999904   1.000000   1.000000
    3        5.574835      5.574876   1.000000   1.000000
    4        5.574835      5.574876   1.000000   1.000000
    5        8.410890      8.410786   0.000000   0.000000
    6        9.031511      9.031411   0.000000   0.000000
    7        9.031511      9.031411   0.000000   0.000000
    8       11.063278     11.063220   0.000000   0.000000
    9       13.096749     13.096639   0.000000   0.000000
   10       13.096749     13.096639   0.000000   0.000000
   11       14.901192     14.900998   0.000000   0.000000
   12       16.606991     16.606761   0.000000   0.000000
   13       18.694214     18.694009   0.000000   0.000000
   14       18.694214     18.694009   0.000000   0.000000
   15       22.959856     22.959614   0.000000   0.000000
   16       26.653898     26.653798   0.000000   0.000000
   17       26.653898     26.653799   0.000000   0.000000
   18       27.143415     27.143311   0.000000   0.000000
   19       29.948927     29.948809   0.000000   0.000000
   20       29.948927     29.948809   0.000000   0.000000
   21       32.541906     32.541873   0.000000   0.000000
   22       32.541907     32.541873   0.000000   0.000000
   23       33.629289     33.629228   0.000000   0.000000
   24       35.540096     35.540067   0.000000   0.000000
   25       37.986318     37.986248   0.000000   0.000000
   26       37.986318     37.986248   0.000000   0.000000
   27       38.139173     38.139030   0.000000   0.000000
   28       40.412668     40.412490   0.000000   0.000000
   29       40.412668     40.412490   0.000000   0.000000
   30       42.463431     42.463282   0.000000   0.000000
   31       42.463431     42.463282   0.000000   0.000000
   32       44.547670     44.547556   0.000000   0.000000
   33       44.547671     44.547557   0.000000   0.000000
   34       45.187656     45.187597   0.000000   0.000000
   35       47.826863     47.825693   0.000000   0.000000
   36       47.951775     47.950914   0.000000   0.000000
 
  0.1904762E+00 -0.4235185E-17 -0.1387779E-16  0.8638376E-03
    1       -5.621812     -5.621851   1.000000   1.000000
    2        3.096271      3.096262   1.000000   1.000000
    3        5.387910      5.387945   1.000000   1.000000
    4        5.387910      5.387945   1.000000   1.000000
    5        8.231405      8.231300   0.000000   0.000000
    6        9.271075      9.270976   0.000000   0.000000
    7        9.271076      9.270977   0.000000   0.000000
    8       11.916015     11.915956   0.000000   0.000000
    9       12.985376     12.985262   0.000000   0.000000
   10       12.985376     12.985262   0.000000   0.000000
   11       15.132245     15.132034   0.000000   0.000000
   12       16.824047     16.823848   0.000000   0.000000
   13       19.559118     19.558924   0.000000   0.000000
   14       19.559118     19.558925   0.000000   0.000000
   15       23.783873     23.783647   0.000000   0.000000
   16       25.357596     25.357498   0.000000   0.000000
   17       25.357596     25.357499   0.000000   0.000000
   18       26.292791     26.292677   0.000000   0.000000
   19       30.016035     30.015915   0.000000   0.000000
   20       30.016035     30.015915   0.000000   0.000000
   21       32.676972     32.676943   0.000000   0.000000
   22       32.676973     32.676943   0.000000   0.000000
   23       34.245446     34.245386   0.000000   0.000000
   24       35.721611     35.721585   0.000000   0.000000
   25       36.661379     36.661235   0.000000   0.000000
   26       38.907922     38.907817   0.000000   0.000000
   27       38.907922     38.907817   0.000000   0.000000
   28       40.053755     40.053582   0.000000   0.000000
   29       40.053755     40.053582   0.000000   0.000000
   30       41.116562     41.116420   0.000000   0.000000
   31       41.116562     41.116420   0.000000   0.000000
   32       44.042414     44.042316   0.000000   0.000000
   33       44.042414     44.042316   0.000000   0.000000
   34       45.234032     45.233966   0.000000   0.000000
   35       46.606015     46.605827   0.000000   0.000000
   36       46.819502     46.819982   0.000000   0.000000
 
  0.2380952E+00  0.1899215E-16  0.1387779E-16  0.8638376E-03
    1       -5.361834     -5.361871   1.000000   1.000000
    2        2.207844      2.207824   1.000000   1.000000
    3        5.211058      5.211089   1.000000   1.000000
    4        5.211059      5.211089   1.000000   1.000000
    5        8.047866      8.047761   0.000000   0.000000
    6        9.428667      9.428563   0.000000   0.000000
    7        9.428667      9.428564   0.000000   0.000000
    8       12.750088     12.750019   0.000000   0.000000
    9       13.075329     13.075217   0.000000   0.000000
   10       13.075329     13.075217   0.000000   0.000000
   11       15.012160     15.011939   0.000000   0.000000
   12       17.604730     17.604559   0.000000   0.000000
   13       20.445501     20.445322   0.000000   0.000000
   14       20.445501     20.445322   0.000000   0.000000
   15       24.145060     24.144907   0.000000   0.000000
   16       24.150466     24.150363   0.000000   0.000000
   17       24.150466     24.150363   0.000000   0.000000
   18       26.019198     26.019014   0.000000   0.000000
   19       30.096150     30.096029   0.000000   0.000000
   20       30.096150     30.096029   0.000000   0.000000
   21       32.799922     32.799895   0.000000   0.000000
   22       32.799922     32.799896   0.000000   0.000000
   23       34.254476     34.254414   0.000000   0.000000
   24       35.656764     35.656619   0.000000   0.000000
   25       35.944917     35.944896   0.000000   0.000000
   26       38.308513     38.308377   0.000000   0.000000
   27       38.308513     38.308378   0.000000   0.000000
   28       39.806210     39.806031   0.000000   0.000000
   29       39.806210     39.806031   0.000000   0.000000
   30       40.616700     40.616560   0.000000   0.000000
   31       40.616701     40.616560   0.000000   0.000000
   32       44.212245     44.212179   0.000000   0.000000
   33       44.212245     44.212179   0.000000   0.000000
   34       44.868559     44.868414   0.000000   0.000000
   35       45.257442     45.257314   0.000000   0.000000
   36       45.784851     45.784713   0.000000   0.000000
 
  0.2857143E+00 -0.2716946E-16  0.0000000E+00  0.8638376E-03
    1       -5.053151     -5.053185   1.000000   1.000000
    2        1.359669      1.359641   1.000000   1.000000
    3        5.055763      5.055791   1.000000   1.000000
    4        5.055763      5.055791   1.000000   1.000000
    5        7.880114      7.880009   0.000000   0.000000
    6        9.477914      9.477803   0.000000   0.000000
    7        9.477914      9.477803   0.000000   0.000000
    8       13.400048     13.399942   0.000000   0.000000
    9       13.400048     13.399942   0.000000   0.000000
   10       13.479662     13.479557   0.000000   0.000000
   11       14.886154     14.885958   0.000000   0.000000
   12       18.635425     18.635271   0.000000   0.000000
   13       21.035740     21.035596   0.000000   0.000000
   14       21.035740     21.035597   0.000000   0.000000
   15       23.358583     23.358451   0.000000   0.000000
   16       23.358583     23.358451   0.000000   0.000000
   17       23.586367     23.586264   0.000000   0.000000
   18       26.806246     26.806016   0.000000   0.000000
   19       30.153392     30.153268   0.000000   0.000000
   20       30.153392     30.153268   0.000000   0.000000
   21       32.906995     32.906971   0.000000   0.000000
   22       32.906996     32.906972   0.000000   0.000000
   23       32.953883     32.953795   0.000000   0.000000
   24       35.821488     35.821362   0.000000   0.000000
   25       36.199735     36.199719   0.000000   0.000000
   26       36.902133     36.902004   0.000000   0.000000
   27       36.902134     36.902004   0.000000   0.000000
   28       39.360221     39.360036   0.000000   0.000000
   29       39.360221     39.360036   0.000000   0.000000
   30       40.475792     40.475631   0.000000   0.000000
   31       40.475792     40.475631   0.000000   0.000000
   32       43.374483     43.374279   0.000000   0.000000
   33       44.753021     44.752941   0.000000   0.000000
   34       44.851640     44.851505   0.000000   0.000000
   35       45.213391     45.213340   0.000000   0.000000
   36       45.213392     45.213343   0.000000   0.000000
 
  0.3333333E+00 -0.3169770E-16  0.0000000E+00  0.8638376E-03
    1       -4.705741     -4.705773   1.000000   1.000000
    2        0.572347      0.572311   1.000000   1.000000
    3        4.928064      4.928091   1.000000   1.000000
    4        4.928065      4.928091   1.000000   1.000000
    5        7.738763      7.738659   0.000000   0.000000
    6        9.444858      9.444738   0.000000   0.000000
    7        9.444858      9.444738   0.000000   0.000000
    8       13.847964     13.847777   0.000000   0.000000
    9       13.935778     13.935680   0.000000   0.000000
   10       13.935779     13.935680   0.000000   0.000000
   11       15.137016     15.136894   0.000000   0.000000
   12       19.657387     19.657246   0.000000   0.000000
   13       20.624339     20.624238   0.000000   0.000000
   14       20.624340     20.624238   0.000000   0.000000
   15       22.889558     22.889466   0.000000   0.000000
   16       23.687719     23.687549   0.000000   0.000000
   17       23.687719     23.687549   0.000000   0.000000
   18       27.978189     27.977950   0.000000   0.000000
   19       30.128354     30.128223   0.000000   0.000000
   20       30.128354     30.128223   0.000000   0.000000
   21       31.358924     31.358831   0.000000   0.000000
   22       32.975246     32.975221   0.000000   0.000000
   23       32.975247     32.975221   0.000000   0.000000
   24       35.489175     35.489061   0.000000   0.000000
   25       35.489175     35.489061   0.000000   0.000000
   26       36.073412     36.073274   0.000000   0.000000
   27       36.469735     36.469726   0.000000   0.000000
   28       39.001326     39.001137   0.000000   0.000000
   29       39.001326     39.001138   0.000000   0.000000
   30       40.099290     40.099120   0.000000   0.000000
   31       40.099290     40.099120   0.000000   0.000000
   32       41.903130     41.902935   0.000000   0.000000
   33       44.037775     44.037632   0.000000   0.000000
   34       44.244420     44.244336   0.000000   0.000000
   35       46.527933     46.527856   0.000000   0.000000
   36       46.528028     46.527942   0.000000   0.000000
 
  0.3809524E+00 -0.6398152E-16 -0.2775558E-16  0.8638376E-03
    1       -4.339676     -4.339702   1.000000   1.000000
    2       -0.127839     -0.127882   1.000000   1.000000
    3        4.830962      4.830989   1.000000   1.000000
    4        4.830963      4.830989   1.000000   1.000000
    5        7.629552      7.629448   0.000000   0.000000
    6        9.376894      9.376768   0.000000   0.000000
    7        9.376894      9.376768   0.000000   0.000000
    8       13.832733     13.832504   0.000000   0.000000
    9       14.633466     14.633373   0.000000   0.000000
   10       14.633466     14.633373   0.000000   0.000000
   11       15.819587     15.819501   0.000000   0.000000
   12       19.631230     19.631138   0.000000   0.000000
   13       19.631230     19.631138   0.000000   0.000000
   14       20.171420     20.171298   0.000000   0.000000
   15       22.766266     22.766168   0.000000   0.000000
   16       24.713942     24.713765   0.000000   0.000000
   17       24.713942     24.713765   0.000000   0.000000
   18       29.191342     29.191101   0.000000   0.000000
   19       29.805310     29.805219   0.000000   0.000000
   20       29.907623     29.907479   0.000000   0.000000
   21       29.907623     29.907479   0.000000   0.000000
   22       32.942643     32.942605   0.000000   0.000000
   23       32.942644     32.942606   0.000000   0.000000
   24       34.367063     34.366981   0.000000   0.000000
   25       34.367063     34.366982   0.000000   0.000000
   26       35.981465     35.981293   0.000000   0.000000
   27       36.729455     36.729454   0.000000   0.000000
   28       38.749443     38.749251   0.000000   0.000000
   29       38.749443     38.749251   0.000000   0.000000
   30       39.674591     39.674416   0.000000   0.000000
   31       39.674591     39.674417   0.000000   0.000000
   32       40.809119     40.808952   0.000000   0.000000
   33       43.369493     43.369342   0.000000   0.000000
   34       43.714030     43.713943   0.000000   0.000000
   35       47.034132     47.033971   0.000000   0.000000
   36       47.034143     47.034083   0.000000   0.000000
 
  0.4285714E+00  0.1475696E-16  0.0000000E+00  0.8638376E-03
    1       -3.998251     -3.998272   1.000000   1.000000
    2       -0.693812     -0.693863   1.000000   1.000000
    3        4.765828      4.765853   1.000000   1.000000
    4        4.765828      4.765854   1.000000   1.000000
    5        7.555516      7.555412   0.000000   0.000000
    6        9.312707      9.312577   0.000000   0.000000
    7        9.312707      9.312577   0.000000   0.000000
    8       13.742957     13.742718   0.000000   0.000000
    9       15.444577     15.444491   0.000000   0.000000
   10       15.444577     15.444491   0.000000   0.000000
   11       16.609470     16.609392   0.000000   0.000000
   12       18.562942     18.562848   0.000000   0.000000
   13       18.562942     18.562848   0.000000   0.000000
   14       19.802072     19.801965   0.000000   0.000000
   15       23.643798     23.643692   0.000000   0.000000
   16       25.924033     25.923856   0.000000   0.000000
   17       25.924034     25.923856   0.000000   0.000000
   18       28.088734     28.088626   0.000000   0.000000
   19       29.332532     29.332372   0.000000   0.000000
   20       29.332532     29.332372   0.000000   0.000000
   21       30.587069     30.586849   0.000000   0.000000
   22       32.729318     32.729254   0.000000   0.000000
   23       32.729318     32.729255   0.000000   0.000000
   24       33.800523     33.800488   0.000000   0.000000
   25       33.800524     33.800489   0.000000   0.000000
   26       35.386761     35.386547   0.000000   0.000000
   27       36.942354     36.942361   0.000000   0.000000
   28       38.613393     38.613200   0.000000   0.000000
   29       38.613393     38.613200   0.000000   0.000000
   30       39.311047     39.310868   0.000000   0.000000
   31       39.311047     39.310868   0.000000   0.000000
   32       40.271391     40.271260   0.000000   0.000000
   33       42.883920     42.883760   0.000000   0.000000
   34       43.254300     43.254208   0.000000   0.000000
   35       47.047202     47.047036   0.000000   0.000000
   36       47.047209     47.047048   0.000000   0.000000
 
  0.4761905E+00  0.3798430E-16  0.2775558E-16  0.8638376E-03
    1       -3.770620     -3.770636   1.000000   1.000000
    2       -1.034211     -1.034268   1.000000   1.000000
    3        4.733189      4.733215   1.000000   1.000000
    4        4.733189      4.733215   1.000000   1.000000
    5        7.518193      7.518090   0.000000   0.000000
    6        9.275450      9.275318   0.000000   0.000000
    7        9.275451      9.275318   0.000000   0.000000
    8       13.686084     13.685841   0.000000   0.000000
    9       16.282356     16.282281   0.000000   0.000000
   10       16.282356     16.282281   0.000000   0.000000
   11       17.265603     17.265530   0.000000   0.000000
   12       17.589709     17.589606   0.000000   0.000000
   13       17.589709     17.589607   0.000000   0.000000
   14       19.227916     19.227812   0.000000   0.000000
   15       24.952511     24.952403   0.000000   0.000000
   16       26.559838     26.559734   0.000000   0.000000
   17       27.171558     27.171379   0.000000   0.000000
   18       27.171558     27.171379   0.000000   0.000000
   19       28.373963     28.373796   0.000000   0.000000
   20       28.373963     28.373796   0.000000   0.000000
   21       31.615171     31.614961   0.000000   0.000000
   22       32.529131     32.529060   0.000000   0.000000
   23       32.529132     32.529060   0.000000   0.000000
   24       33.655474     33.655459   0.000000   0.000000
   25       33.655475     33.655460   0.000000   0.000000
   26       34.606150     34.605904   0.000000   0.000000
   27       37.065214     37.065226   0.000000   0.000000
   28       38.575725     38.575532   0.000000   0.000000
   29       38.575725     38.575532   0.000000   0.000000
   30       39.085650     39.085467   0.000000   0.000000
   31       39.085650     39.085468   0.000000   0.000000
   32       40.135003     40.134891   0.000000   0.000000
   33       42.624718     42.624554   0.000000   0.000000
   34       42.975434     42.975339   0.000000   0.000000
   35       47.039186     47.039016   0.000000   0.000000
   36       47.039189     47.039026   0.000000   0.000000
 
  0.4761905E-01  0.4761905E-01 -0.6938894E-17  0.6478782E-03
    1       -6.056284     -6.056326   1.000000   1.000000
    2        5.684149      5.684201   1.000000   1.000000
    3        5.772617      5.772665   1.000000   1.000000
    4        5.772617      5.772666   1.000000   1.000000
    5        8.408110      8.407991   0.000000   0.000000
    6        8.716999      8.716895   0.000000   0.000000
    7        8.716999      8.716895   0.000000   0.000000
    8        9.675612      9.675536   0.000000   0.000000
    9       13.357473     13.357377   0.000000   0.000000
   10       13.704510     13.704430   0.000000   0.000000
   11       14.114047     14.113850   0.000000   0.000000
   12       17.293662     17.293422   0.000000   0.000000
   13       17.293662     17.293422   0.000000   0.000000
   14       17.434822     17.434597   0.000000   0.000000
   15       21.699278     21.699030   0.000000   0.000000
   16       28.612899     28.612780   0.000000   0.000000
   17       28.612899     28.612780   0.000000   0.000000
   18       29.219270     29.219140   0.000000   0.000000
   19       29.790515     29.790408   0.000000   0.000000
   20       29.976114     29.976012   0.000000   0.000000
   21       32.169163     32.169118   0.000000   0.000000
   22       32.313499     32.313461   0.000000   0.000000
   23       32.313500     32.313462   0.000000   0.000000
   24       35.608690     35.608653   0.000000   0.000000
   25       35.608690     35.608653   0.000000   0.000000
   26       35.814661     35.814619   0.000000   0.000000
   27       40.803812     40.803636   0.000000   0.000000
   28       40.803812     40.803636   0.000000   0.000000
   29       40.805386     40.805223   0.000000   0.000000
   30       44.267121     44.266965   0.000000   0.000000
   31       44.737637     44.737587   0.000000   0.000000
   32       44.819153     44.818995   0.000000   0.000000
   33       45.968560     45.968439   0.000000   0.000000
   34       46.759879     46.759714   0.000000   0.000000
   35       48.463872     48.466530   0.000000   0.000000
   36       48.604266     48.604070   0.000000   0.000000
 
  0.9523810E-01  0.4761905E-01  0.0000000E+00  0.2591513E-02
    1       -5.986317     -5.986359   1.000000   1.000000
    2        5.097322      5.097351   1.000000   1.000000
    3        5.597852      5.597890   1.000000   1.000000
    4        5.726668      5.726717   1.000000   1.000000
    5        8.400771      8.400655   0.000000   0.000000
    6        8.835733      8.835633   0.000000   0.000000
    7        8.960321      8.960226   0.000000   0.000000
    8       10.111621     10.111554   0.000000   0.000000
    9       13.056981     13.056873   0.000000   0.000000
   10       13.656152     13.656066   0.000000   0.000000
   11       14.402493     14.402299   0.000000   0.000000
   12       17.093264     17.093028   0.000000   0.000000
   13       17.556018     17.555786   0.000000   0.000000
   14       17.946327     17.946112   0.000000   0.000000
   15       22.157384     22.157138   0.000000   0.000000
   16       27.801485     27.801377   0.000000   0.000000
   17       27.893253     27.893144   0.000000   0.000000
   18       28.929942     28.929822   0.000000   0.000000
   19       29.485524     29.485418   0.000000   0.000000
   20       29.707908     29.707806   0.000000   0.000000
   21       32.329596     32.329546   0.000000   0.000000
   22       32.558215     32.558178   0.000000   0.000000
   23       32.807444     32.807397   0.000000   0.000000
   24       35.739609     35.739572   0.000000   0.000000
   25       36.266121     36.266076   0.000000   0.000000
   26       36.745636     36.745583   0.000000   0.000000
   27       39.874909     39.874753   0.000000   0.000000
   28       40.461140     40.460963   0.000000   0.000000
   29       40.787689     40.787517   0.000000   0.000000
   30       43.464240     43.464085   0.000000   0.000000
   31       44.406198     44.406041   0.000000   0.000000
   32       44.692910     44.692816   0.000000   0.000000
   33       45.370352     45.370269   0.000000   0.000000
   34       46.231492     46.231366   0.000000   0.000000
   35       48.022776     48.020378   0.000000   0.000000
   36       48.423959     48.425666   0.000000   0.000000
 
  0.1428571E+00  0.4761905E-01  0.0000000E+00  0.2591513E-02
    1       -5.857104     -5.857145   1.000000   1.000000
    2        4.274357      4.274367   1.000000   1.000000
    3        5.398902      5.398932   1.000000   1.000000
    4        5.610882      5.610926   1.000000   1.000000
    5        8.481483      8.481380   0.000000   0.000000
    6        8.839588      8.839481   0.000000   0.000000
    7        9.249389      9.249300   0.000000   0.000000
    8       10.813171     10.813108   0.000000   0.000000
    9       12.795809     12.795694   0.000000   0.000000
   10       13.507111     13.507013   0.000000   0.000000
   11       14.857813     14.857623   0.000000   0.000000
   12       16.810693     16.810462   0.000000   0.000000
   13       18.132933     18.132714   0.000000   0.000000
   14       18.703728     18.703525   0.000000   0.000000
   15       22.870104     22.869862   0.000000   0.000000
   16       26.585661     26.585561   0.000000   0.000000
   17       26.874993     26.874891   0.000000   0.000000
   18       28.063894     28.063788   0.000000   0.000000
   19       29.432646     29.432537   0.000000   0.000000
   20       29.689321     29.689212   0.000000   0.000000
   21       32.439823     32.439774   0.000000   0.000000
   22       32.743518     32.743483   0.000000   0.000000
   23       33.522719     33.522664   0.000000   0.000000
   24       35.855972     35.855936   0.000000   0.000000
   25       37.363028     37.362969   0.000000   0.000000
   26       38.005658     38.005590   0.000000   0.000000
   27       38.549721     38.549576   0.000000   0.000000
   28       40.022413     40.022235   0.000000   0.000000
   29       40.600597     40.600424   0.000000   0.000000
   30       42.320607     42.320455   0.000000   0.000000