 vasp.5.4.1 05Feb16 (build Apr 16 2019 13:49:49) complex                        
  
 executed on           IFC91_ompi date 2019.07.24  14:18:20
 running on   36 total cores
 distrk:  each k-point on   36 cores,    1 groups
 distr:  one band on NCORES_PER_BAND=   1 cores,   36 groups


--------------------------------------------------------------------------------------------------------


 INCAR:
 POTCAR:    PAW_PBE Si 05Jan2001                  

 ----------------------------------------------------------------------------- 
|                                                                             |
|           W    W    AA    RRRRR   N    N  II  N    N   GGGG   !!!           |
|           W    W   A  A   R    R  NN   N  II  NN   N  G    G  !!!           |
|           W    W  A    A  R    R  N N  N  II  N N  N  G       !!!           |
|           W WW W  AAAAAA  RRRRR   N  N N  II  N  N N  G  GGG   !            |
|           WW  WW  A    A  R   R   N   NN  II  N   NN  G    G                |
|           W    W  A    A  R    R  N    N  II  N    N   GGGG   !!!           |
|                                                                             |
|      For optimal performance we recommend to set                            |
|        NCORE= 4 - approx SQRT( number of cores)                             |
|      NCORE specifies how many cores store one orbital (NPAR=cpu/NCORE).     |
|      This setting can  greatly improve the performance of VASP for DFT.     |
|      The default, NPAR=number of cores might be grossly inefficient         |
|      on modern multi-core architectures or massively parallel machines.     |
|      Do your own testing !!!!                                               |
|      Unfortunately you need to use the default for GW and RPA calculations. |
|      (for HF NCORE is supported but not extensively tested yet)             |
|                                                                             |
 ----------------------------------------------------------------------------- 

 POTCAR:    PAW_PBE Si 05Jan2001                  
   VRHFIN =Si: s2p2                                                             
   LEXCH  = PE                                                                  
   EATOM  =   103.0669 eV,    7.5752 Ry                                         
                                                                                
   TITEL  = PAW_PBE Si 05Jan2001                                                
   LULTRA =        F    use ultrasoft PP ?                                      
   IUNSCR =        1    unscreen: 0-lin 1-nonlin 2-no                           
   RPACOR =    1.500    partial core radius                                     
   POMASS =   28.085; ZVAL   =    4.000    mass and valenz                      
   RCORE  =    1.900    outmost cutoff radius                                   
   RWIGS  =    2.480; RWIGS  =    1.312    wigner-seitz radius (au A)           
   ENMAX  =  245.345; ENMIN  =  184.009 eV                                      
   ICORE  =        2    local potential                                         
   LCOR   =        T    correct aug charges                                     
   LPAW   =        T    paw PP                                                  
   EAUG   =  322.069                                                            
   DEXC   =    0.000                                                            
   RMAX   =    1.950    core radius for proj-oper                               
   RAUG   =    1.300    factor for augmentation sphere                          
   RDEP   =    1.993    radius for radial grids                                 
   RDEPT  =    1.837    core radius for aug-charge                              
                                                                                
   Atomic configuration                                                         
    6 entries                                                                   
     n  l   j            E        occ.                                          
     1  0  0.50     -1785.8828   2.0000                                         
     2  0  0.50      -139.4969   2.0000                                         
     2  1  1.50       -95.5546   6.0000                                         
     3  0  0.50       -10.8127   2.0000                                         
     3  1  0.50        -4.0811   2.0000                                         
     3  2  1.50        -4.0817   0.0000                                         
   Description                                                                  
     l       E           TYP  RCUT    TYP  RCUT                                 
     0    -10.8127223     23  1.900                                             
     0     -7.6451159     23  1.900                                             
     1     -4.0811372     23  1.900                                             
     1      2.4879257     23  1.900                                             
     2     -4.0817478      7  1.900                                             
  local pseudopotential read in
  partial core-charges read in
  partial kinetic energy density read in
  atomic valenz-charges read in
  non local Contribution for L=           0  read in
    real space projection operators read in
  non local Contribution for L=           0  read in
    real space projection operators read in
  non local Contribution for L=           1  read in
    real space projection operators read in
  non local Contribution for L=           1  read in
    real space projection operators read in
    PAW grid and wavefunctions read in
 
   number of l-projection  operators is LMAX  =           4
   number of lm-projection operators is LMMAX =           8
 

 ----------------------------------------------------------------------------- 
|                                                                             |
|  ADVICE TO THIS USER RUNNING 'VASP/VAMP'   (HEAR YOUR MASTER'S VOICE ...):  |
|                                                                             |
|      You have a (more or less) 'small supercell' and for smaller cells      |
|      it is recommended  to use the reciprocal-space projection scheme!      |
|      The real space optimization is not  efficient for small cells and it   |
|      is also less accurate ...                                              |
|      Therefore set LREAL=.FALSE. in the  INCAR file                         |
|                                                                             |
 ----------------------------------------------------------------------------- 

 Optimization of the real space projectors (new method)

 maximal supplied QI-value         = 19.84
 optimisation between [QCUT,QGAM] = [ 11.51, 23.22] = [ 37.09,150.92] Ry 
 Optimized for a Real-space Cutoff    1.21 Angstroem

   l    n(q)    QCUT    max X(q) W(low)/X(q) W(high)/X(q)  e(spline) 
   0      8    11.508   159.560    0.71E-04    0.15E-03    0.51E-07
   0      8    11.508   115.863    0.70E-04    0.15E-03    0.51E-07
   1      8    11.508    88.339    0.16E-03    0.38E-04    0.82E-07
   1      8    11.508    48.592    0.15E-03    0.36E-04    0.79E-07
  PAW_PBE Si 05Jan2001                  :
 energy of atom  1       EATOM= -103.0669
 kinetic energy error for atom=    0.0005 (will be added to EATOM!!)
 
 
 POSCAR: si2                                     
  positions in direct lattice
  velocities in cartesian coordinates
 exchange correlation table for  LEXCH =        8
   RHO(1)=    0.500       N(1)  =     2000
   RHO(2)=  100.500       N(2)  =     4000
 


--------------------------------------------------------------------------------------------------------


 ion  position               nearest neighbor table
   1  0.750  0.750  0.750-   2 2.34   2 2.34   2 2.34   2 2.34
   2  0.500  0.500  0.500-   1 2.34   1 2.34   1 2.34   1 2.34
 
  LATTYP: Found a face centered cubic cell.
 ALAT       =     5.4113990728
  
  Lattice vectors:
  
 A1 = (   3.8264369801,   0.0000000000,   0.0000000000)
 A2 = (   1.9132184900,   3.3137916307,  -0.0000000000)
 A3 = (   1.9132184900,   1.1045972103,   3.1242727114)


Analysis of symmetry for initial positions (statically):
=====================================================================
 Subroutine PRICEL returns:
 Original cell was already a primitive cell.
 

 Routine SETGRP: Setting up the symmetry group for a 
 face centered cubic supercell.


 Subroutine GETGRP returns: Found 48 space group operations
 (whereof 24 operations were pure point group operations)
 out of a pool of 48 trial point group operations.


The static configuration has the point symmetry T_d .
 The point group associated with its full space group is O_h .


Analysis of symmetry for dynamics (positions and initial velocities):
=====================================================================
 Subroutine PRICEL returns:
 Original cell was already a primitive cell.
 

 Routine SETGRP: Setting up the symmetry group for a 
 face centered cubic supercell.


 Subroutine GETGRP returns: Found 48 space group operations
 (whereof 24 operations were pure point group operations)
 out of a pool of 48 trial point group operations.


The dynamic configuration has the point symmetry T_d .
 The point group associated with its full space group is O_h .


Analysis of structural, dynamic, and magnetic symmetry:
=====================================================================
 Subroutine PRICEL returns:
 Original cell was already a primitive cell.
 

 Routine SETGRP: Setting up the symmetry group for a 
 face centered cubic supercell.


 Subroutine GETGRP returns: Found 48 space group operations
 (whereof 24 operations were pure point group operations)
 out of a pool of 48 trial point group operations.


The magnetic configuration has the point symmetry T_d .
 The point group associated with its full space group is O_h .


 Subroutine INISYM returns: Found 48 space group operations
 (whereof 24 operations are pure point group operations),
 and found     1 'primitive' translations

 
 
 KPOINTS: pymatgen v1.1 with grid density = 777 / 

Automatic generation of k-mesh.
Space group operators:
 irot       det(A)        alpha          n_x          n_y          n_z        tau_x        tau_y        tau_z
    1     1.000000     0.000001     1.000000     0.000000     0.000000     0.000000     0.000000     0.000000
    2     1.000000   120.000000    -0.816497    -0.471405    -0.333333     0.000000     0.000000     0.000000
    3     1.000000   120.000000     0.816497     0.471405     0.333333     0.000000     0.000000     0.000000
    4    -1.000000    90.000000    -0.707107    -0.408248     0.577350     0.000000     0.000000     0.000000
    5    -1.000000   180.000000     1.000000    -0.000000     0.000000     0.000000     0.000000     0.000000
    6    -1.000000    90.000000     0.707107    -0.408248     0.577350     0.000000     0.000000     0.000000
    7     1.000000   180.000000     0.707107     0.408248    -0.577350     0.000000     0.000000     0.000000
    8     1.000000   120.000000     0.816497    -0.471405    -0.333333     0.000000     0.000000     0.000000
    9     1.000000   120.000000     0.000000    -0.942809     0.333333     0.000000     0.000000     0.000000
   10    -1.000000    90.000000     0.707107     0.408248    -0.577350     0.000000     0.000000     0.000000
   11    -1.000000    90.000000    -0.000000    -0.816497    -0.577350     0.000000     0.000000     0.000000
   12    -1.000000   179.999999     0.500000     0.866025    -0.000000     0.000000     0.000000     0.000000
   13     1.000000   120.000000     0.000000     0.942809    -0.333333     0.000000     0.000000     0.000000
   14     1.000000   120.000000     0.000000    -0.000000    -1.000000     0.000000     0.000000     0.000000
   15     1.000000   179.999999     0.000000    -0.816497    -0.577350     0.000000     0.000000     0.000000
   16    -1.000000    90.000000    -0.707107     0.408248    -0.577350     0.000000     0.000000     0.000000
   17    -1.000000   180.000000     0.500000     0.288675     0.816497     0.000000     0.000000     0.000000
   18    -1.000000    90.000000    -0.000000     0.816497     0.577350     0.000000     0.000000     0.000000
   19     1.000000   120.000000    -0.816497     0.471405     0.333333     0.000000     0.000000     0.000000
   20     1.000000   180.000000    -0.707107     0.408248    -0.577350     0.000000     0.000000     0.000000
   21     1.000000   120.000000     0.000000     0.000000     1.000000     0.000000     0.000000     0.000000
   22    -1.000000   180.000000     0.000000    -0.577350     0.816497     0.000000     0.000000     0.000000
   23    -1.000000   180.000000    -0.500000     0.866025    -0.000000     0.000000     0.000000     0.000000
   24    -1.000000   180.000000    -0.500000     0.288675     0.816497     0.000000     0.000000     0.000000
   25    -1.000000     0.000001     1.000000     0.000000     0.000000     0.250000     0.250000     0.250000
   26    -1.000000   120.000000    -0.816497    -0.471405    -0.333333     0.250000     0.250000     0.250000
   27    -1.000000   120.000000     0.816497     0.471405     0.333333     0.250000     0.250000     0.250000
   28     1.000000    90.000000    -0.707107    -0.408248     0.577350     0.250000     0.250000     0.250000
   29     1.000000   180.000000     1.000000    -0.000000     0.000000     0.250000     0.250000     0.250000
   30     1.000000    90.000000     0.707107    -0.408248     0.577350     0.250000     0.250000     0.250000
   31    -1.000000   180.000000     0.707107     0.408248    -0.577350     0.250000     0.250000     0.250000
   32    -1.000000   120.000000     0.816497    -0.471405    -0.333333     0.250000     0.250000     0.250000
   33    -1.000000   120.000000     0.000000    -0.942809     0.333333     0.250000     0.250000     0.250000
   34     1.000000    90.000000     0.707107     0.408248    -0.577350     0.250000     0.250000     0.250000
   35     1.000000    90.000000    -0.000000    -0.816497    -0.577350     0.250000     0.250000     0.250000
   36     1.000000   179.999999     0.500000     0.866025    -0.000000     0.250000     0.250000     0.250000
   37    -1.000000   120.000000     0.000000     0.942809    -0.333333     0.250000     0.250000     0.250000
   38    -1.000000   120.000000     0.000000    -0.000000    -1.000000     0.250000     0.250000     0.250000
   39    -1.000000   179.999999     0.000000    -0.816497    -0.577350     0.250000     0.250000     0.250000
   40     1.000000    90.000000    -0.707107     0.408248    -0.577350     0.250000     0.250000     0.250000
   41     1.000000   180.000000     0.500000     0.288675     0.816497     0.250000     0.250000     0.250000
   42     1.000000    90.000000    -0.000000     0.816497     0.577350     0.250000     0.250000     0.250000
   43    -1.000000   120.000000    -0.816497     0.471405     0.333333     0.250000     0.250000     0.250000
   44    -1.000000   180.000000    -0.707107     0.408248    -0.577350     0.250000     0.250000     0.250000
   45    -1.000000   120.000000     0.000000     0.000000     1.000000     0.250000     0.250000     0.250000
   46     1.000000   180.000000     0.000000    -0.577350     0.816497     0.250000     0.250000     0.250000
   47     1.000000   180.000000    -0.500000     0.866025    -0.000000     0.250000     0.250000     0.250000
   48     1.000000   180.000000    -0.500000     0.288675     0.816497     0.250000     0.250000     0.250000
 
 Subroutine IBZKPT returns following result:
 ===========================================
 
 Found    286 irreducible k-points:
 
 Following reciprocal coordinates:
            Coordinates               Weight
  0.000000  0.000000  0.000000      1.000000
  0.047619 -0.000000 -0.000000      8.000000
  0.095238 -0.000000 -0.000000      8.000000
  0.142857  0.000000  0.000000      8.000000
  0.190476 -0.000000 -0.000000      8.000000
  0.238095  0.000000  0.000000      8.000000
  0.285714 -0.000000  0.000000      8.000000
  0.333333 -0.000000  0.000000      8.000000
  0.380952 -0.000000 -0.000000      8.000000
  0.428571  0.000000  0.000000      8.000000
  0.476190  0.000000  0.000000      8.000000
  0.047619  0.047619 -0.000000      6.000000
  0.095238  0.047619  0.000000     24.000000
  0.142857  0.047619  0.000000     24.000000
  0.190476  0.047619  0.000000     24.000000
  0.238095  0.047619  0.000000     24.000000
  0.285714  0.047619  0.000000     24.000000
  0.333333  0.047619  0.000000     24.000000
  0.380952  0.047619  0.000000     24.000000
  0.428571  0.047619  0.000000     24.000000
  0.476190  0.047619  0.000000     24.000000
 -0.476190  0.047619  0.000000     24.000000
 -0.428571  0.047619  0.000000     24.000000
 -0.380952  0.047619 -0.000000     24.000000
 -0.333333  0.047619  0.000000     24.000000
 -0.285714  0.047619  0.000000     24.000000
 -0.238095  0.047619  0.000000     24.000000
 -0.190476  0.047619  0.000000     24.000000
 -0.142857  0.047619  0.000000     24.000000
 -0.095238  0.047619  0.000000     24.000000
 -0.047619  0.047619  0.000000     12.000000
  0.095238  0.095238 -0.000000      6.000000
  0.142857  0.095238  0.000000     24.000000
  0.190476  0.095238 -0.000000     24.000000
  0.238095  0.095238  0.000000     24.000000
  0.285714  0.095238  0.000000     24.000000
  0.333333  0.095238  0.000000     24.000000
  0.380952  0.095238 -0.000000     24.000000
  0.428571  0.095238  0.000000     24.000000
  0.476190  0.095238  0.000000     24.000000
 -0.476190  0.095238  0.000000     24.000000
 -0.428571  0.095238  0.000000     24.000000
 -0.380952  0.095238  0.000000     24.000000
 -0.333333  0.095238  0.000000     24.000000
 -0.285714  0.095238  0.000000     24.000000
 -0.238095  0.095238  0.000000     24.000000
 -0.190476  0.095238  0.000000     24.000000
 -0.142857  0.095238  0.000000     24.000000
 -0.095238  0.095238  0.000000     12.000000
  0.142857  0.142857 -0.000000      6.000000
  0.190476  0.142857  0.000000     24.000000
  0.238095  0.142857  0.000000     24.000000
  0.285714  0.142857  0.000000     24.000000
  0.333333  0.142857  0.000000     24.000000
  0.380952  0.142857 -0.000000     24.000000
  0.428571  0.142857  0.000000     24.000000
  0.476190  0.142857  0.000000     24.000000
 -0.476190  0.142857  0.000000     24.000000
 -0.428571  0.142857  0.000000     24.000000
 -0.380952  0.142857  0.000000     24.000000
 -0.333333  0.142857  0.000000     24.000000
 -0.285714  0.142857  0.000000     24.000000
 -0.238095  0.142857  0.000000     24.000000
 -0.190476  0.142857  0.000000     24.000000
 -0.142857  0.142857  0.000000     12.000000
  0.190476  0.190476 -0.000000      6.000000
  0.238095  0.190476  0.000000     24.000000
  0.285714  0.190476 -0.000000     24.000000
  0.333333  0.190476 -0.000000     24.000000
  0.380952  0.190476  0.000000     24.000000
  0.428571  0.190476  0.000000     24.000000
  0.476190  0.190476 -0.000000     24.000000
 -0.476190  0.190476  0.000000     24.000000
 -0.428571  0.190476  0.000000     24.000000
 -0.380952  0.190476  0.000000     24.000000
 -0.333333  0.190476  0.000000     24.000000
 -0.285714  0.190476  0.000000     24.000000
 -0.238095  0.190476 -0.000000     24.000000
 -0.190476  0.190476  0.000000     12.000000
  0.238095  0.238095  0.000000      6.000000
  0.285714  0.238095 -0.000000     24.000000
  0.333333  0.238095 -0.000000     24.000000
  0.380952  0.238095  0.000000     24.000000
  0.428571  0.238095 -0.000000     24.000000
  0.476190  0.238095 -0.000000     24.000000
 -0.476190  0.238095  0.000000     24.000000
 -0.428571  0.238095  0.000000     24.000000
 -0.380952  0.238095  0.000000     24.000000
 -0.333333  0.238095  0.000000     24.000000
 -0.285714  0.238095  0.000000     24.000000
 -0.238095  0.238095  0.000000     12.000000
  0.285714  0.285714  0.000000      6.000000
  0.333333  0.285714  0.000000     24.000000
  0.380952  0.285714  0.000000     24.000000
  0.428571  0.285714  0.000000     24.000000
  0.476190  0.285714  0.000000     24.000000
 -0.476190  0.285714  0.000000     24.000000
 -0.428571  0.285714  0.000000     24.000000
 -0.380952  0.285714  0.000000     24.000000
 -0.333333  0.285714  0.000000     24.000000
 -0.285714  0.285714  0.000000     12.000000
  0.333333  0.333333 -0.000000      6.000000
  0.380952  0.333333  0.000000     24.000000
  0.428571  0.333333  0.000000     24.000000
  0.476190  0.333333  0.000000     24.000000
 -0.476190  0.333333  0.000000     24.000000
 -0.428571  0.333333  0.000000     24.000000
 -0.380952  0.333333  0.000000     24.000000
 -0.333333  0.333333  0.000000     12.000000
  0.380952  0.380952  0.000000      6.000000
  0.428571  0.380952  0.000000     24.000000
  0.476190  0.380952  0.000000     24.000000
 -0.476190  0.380952  0.000000     24.000000
 -0.428571  0.380952  0.000000     24.000000
 -0.380952  0.380952  0.000000     12.000000
  0.428571  0.428571  0.000000      6.000000
  0.476190  0.428571  0.000000     24.000000
 -0.476190  0.428571  0.000000     24.000000
 -0.428571  0.428571  0.000000     12.000000
  0.476190  0.476190  0.000000      6.000000
 -0.476190  0.476190  0.000000     12.000000
  0.142857  0.095238  0.047619     24.000000
  0.190476  0.095238  0.047619     48.000000
  0.238095  0.095238  0.047619     48.000000
  0.285714  0.095238  0.047619     48.000000
  0.333333  0.095238  0.047619     48.000000
  0.380952  0.095238  0.047619     48.000000
  0.428571  0.095238  0.047619     48.000000
  0.476190  0.095238  0.047619     48.000000
 -0.476190  0.095238  0.047619     48.000000
  0.190476  0.142857  0.047619     24.000000
  0.238095  0.142857  0.047619     48.000000
  0.285714  0.142857  0.047619     48.000000
  0.333333  0.142857  0.047619     48.000000
  0.380952  0.142857  0.047619     48.000000
  0.428571  0.142857  0.047619     48.000000
  0.476190  0.142857  0.047619     48.000000
 -0.476190  0.142857  0.047619     48.000000
 -0.428571  0.142857  0.047619     48.000000
 -0.380952  0.142857  0.047619     48.000000
 -0.333333  0.142857  0.047619     48.000000
 -0.285714  0.142857  0.047619     48.000000
 -0.238095  0.142857  0.047619     48.000000
 -0.190476  0.142857  0.047619     48.000000
 -0.142857  0.142857  0.047619     48.000000
 -0.095238  0.142857  0.047619     24.000000
  0.238095  0.190476  0.047619     24.000000
  0.285714  0.190476  0.047619     48.000000
  0.333333  0.190476  0.047619     48.000000
  0.380952  0.190476  0.047619     48.000000
  0.428571  0.190476  0.047619     48.000000
  0.476190  0.190476  0.047619     48.000000
 -0.476190  0.190476  0.047619     48.000000
 -0.428571  0.190476  0.047619     48.000000
 -0.380952  0.190476  0.047619     48.000000
 -0.333333  0.190476  0.047619     48.000000
 -0.285714  0.190476  0.047619     48.000000
 -0.238095  0.190476  0.047619     48.000000
 -0.190476  0.190476  0.047619     48.000000
 -0.142857  0.190476  0.047619     24.000000
  0.285714  0.238095  0.047619     24.000000
  0.333333  0.238095  0.047619     48.000000
  0.380952  0.238095  0.047619     48.000000
  0.428571  0.238095  0.047619     48.000000
  0.476190  0.238095  0.047619     48.000000
 -0.476190  0.238095  0.047619     48.000000
 -0.428571  0.238095  0.047619     48.000000
 -0.380952  0.238095  0.047619     48.000000
 -0.333333  0.238095  0.047619     48.000000
 -0.285714  0.238095  0.047619     48.000000
 -0.238095  0.238095  0.047619     48.000000
 -0.190476  0.238095  0.047619     24.000000
  0.333333  0.285714  0.047619     24.000000
  0.380952  0.285714  0.047619     48.000000
  0.428571  0.285714  0.047619     48.000000
  0.476190  0.285714  0.047619     48.000000
 -0.476190  0.285714  0.047619     48.000000
 -0.428571  0.285714  0.047619     48.000000
 -0.380952  0.285714  0.047619     48.000000
 -0.333333  0.285714  0.047619     48.000000
 -0.285714  0.285714  0.047619     48.000000
 -0.238095  0.285714  0.047619     24.000000
  0.380952  0.333333  0.047619     24.000000
  0.428571  0.333333  0.047619     48.000000
  0.476190  0.333333  0.047619     48.000000
 -0.476190  0.333333  0.047619     48.000000
 -0.428571  0.333333  0.047619     48.000000
 -0.380952  0.333333  0.047619     48.000000
 -0.333333  0.333333  0.047619     48.000000
 -0.285714  0.333333  0.047619     24.000000
  0.428571  0.380952  0.047619     24.000000
  0.476190  0.380952  0.047619     48.000000
 -0.476190  0.380952  0.047619     48.000000
 -0.428571  0.380952  0.047619     48.000000
 -0.380952  0.380952  0.047619     48.000000
 -0.333333  0.380952  0.047619     24.000000
  0.476190  0.428571  0.047619     24.000000
 -0.476190  0.428571  0.047619     48.000000
 -0.428571  0.428571  0.047619     48.000000
 -0.380952  0.428571  0.047619     24.000000
 -0.476190  0.476190  0.047619     24.000000
 -0.428571  0.476190  0.047619     24.000000
  0.285714  0.190476  0.095238     24.000000
  0.333333  0.190476  0.095238     48.000000
  0.380952  0.190476  0.095238     48.000000
  0.428571  0.190476  0.095238     48.000000
  0.476190  0.190476  0.095238     48.000000
 -0.476190  0.190476  0.095238     48.000000
 -0.428571  0.190476  0.095238     48.000000
  0.333333  0.238095  0.095238     24.000000
  0.380952  0.238095  0.095238     48.000000
  0.428571  0.238095  0.095238     48.000000
  0.476190  0.238095  0.095238     48.000000
 -0.476190  0.238095  0.095238     48.000000
 -0.428571  0.238095  0.095238     48.000000
 -0.380952  0.238095  0.095238     48.000000
 -0.333333  0.238095  0.095238     48.000000
 -0.285714  0.238095  0.095238     48.000000
 -0.238095  0.238095  0.095238     48.000000
 -0.190476  0.238095  0.095238     48.000000
 -0.142857  0.238095  0.095238     24.000000
  0.380952  0.285714  0.095238     24.000000
  0.428571  0.285714  0.095238     48.000000
  0.476190  0.285714  0.095238     48.000000
 -0.476190  0.285714  0.095238     48.000000
 -0.428571  0.285714  0.095238     48.000000
 -0.380952  0.285714  0.095238     48.000000
 -0.333333  0.285714  0.095238     48.000000
 -0.285714  0.285714  0.095238     48.000000
 -0.238095  0.285714  0.095238     48.000000
 -0.190476  0.285714  0.095238     24.000000
  0.428571  0.333333  0.095238     24.000000
  0.476190  0.333333  0.095238     48.000000
 -0.476190  0.333333  0.095238     48.000000
 -0.428571  0.333333  0.095238     48.000000
 -0.380952  0.333333  0.095238     48.000000
 -0.333333  0.333333  0.095238     48.000000
 -0.285714  0.333333  0.095238     48.000000
 -0.238095  0.333333  0.095238     24.000000
  0.476190  0.380952  0.095238     24.000000
 -0.476190  0.380952  0.095238     48.000000
 -0.428571  0.380952  0.095238     48.000000
 -0.380952  0.380952  0.095238     48.000000
 -0.333333  0.380952  0.095238     48.000000
 -0.285714  0.380952  0.095238     24.000000
 -0.476190  0.428571  0.095238     24.000000
 -0.428571  0.428571  0.095238     48.000000
 -0.380952  0.428571  0.095238     48.000000
 -0.333333  0.428571  0.095238     24.000000
 -0.428571  0.476190  0.095238     24.000000
 -0.380952  0.476190  0.095238     24.000000
  0.428571  0.285714  0.142857     24.000000
  0.476190  0.285714  0.142857     48.000000
 -0.476190  0.285714  0.142857     48.000000
 -0.428571  0.285714  0.142857     48.000000
 -0.380952  0.285714  0.142857     48.000000
  0.476190  0.333333  0.142857     24.000000
 -0.476190  0.333333  0.142857     48.000000
 -0.428571  0.333333  0.142857     48.000000
 -0.380952  0.333333  0.142857     48.000000
 -0.333333  0.333333  0.142857     48.000000
 -0.285714  0.333333  0.142857     48.000000
 -0.238095  0.333333  0.142857     48.000000
 -0.190476  0.333333  0.142857     24.000000
 -0.476190  0.380952  0.142857     24.000000
 -0.428571  0.380952  0.142857     48.000000
 -0.380952  0.380952  0.142857     48.000000
 -0.333333  0.380952  0.142857     48.000000
 -0.285714  0.380952  0.142857     48.000000
 -0.238095  0.380952  0.142857     24.000000
 -0.428571  0.428571  0.142857     24.000000
 -0.380952  0.428571  0.142857     48.000000
 -0.333333  0.428571  0.142857     48.000000
 -0.285714  0.428571  0.142857     24.000000
 -0.380952  0.476190  0.142857     24.000000
 -0.333333  0.476190  0.142857     24.000000
 -0.428571  0.380952  0.190476     24.000000
 -0.380952  0.380952  0.190476     48.000000
 -0.333333  0.380952  0.190476     48.000000
 -0.380952  0.428571  0.190476     24.000000
 -0.333333  0.428571  0.190476     48.000000
 -0.285714  0.428571  0.190476     48.000000
 -0.238095  0.428571  0.190476     24.000000
 -0.333333  0.476190  0.190476     24.000000
 -0.285714  0.476190  0.190476     24.000000
 -0.285714  0.476190  0.238095     24.000000
 
 Following cartesian coordinates:
            Coordinates               Weight
  0.000000  0.000000  0.000000      1.000000
  0.012445 -0.007185 -0.005081      8.000000
  0.024889 -0.014370 -0.010161      8.000000
  0.037334 -0.021555 -0.015242      8.000000
  0.049779 -0.028740 -0.020322      8.000000
  0.062224 -0.035925 -0.025403      8.000000
  0.074668 -0.043110 -0.030483      8.000000
  0.087113 -0.050295 -0.035564      8.000000
  0.099558 -0.057480 -0.040644      8.000000
  0.112003 -0.064665 -0.045725      8.000000
  0.124447 -0.071850 -0.050805      8.000000
  0.012445  0.007185 -0.010161      6.000000
  0.024889 -0.000000 -0.015242     24.000000
  0.037334 -0.007185 -0.020322     24.000000
  0.049779 -0.014370 -0.025403     24.000000
  0.062224 -0.021555 -0.030483     24.000000
  0.074668 -0.028740 -0.035564     24.000000
  0.087113 -0.035925 -0.040644     24.000000
  0.099558 -0.043110 -0.045725     24.000000
  0.112003 -0.050295 -0.050805     24.000000
  0.124447 -0.057480 -0.055886     24.000000
 -0.124447  0.086220  0.045725     24.000000
 -0.112003  0.079035  0.040644     24.000000
 -0.099558  0.071850  0.035564     24.000000
 -0.087113  0.064665  0.030483     24.000000
 -0.074668  0.057480  0.025403     24.000000
 -0.062224  0.050295  0.020322     24.000000
 -0.049779  0.043110  0.015242     24.000000
 -0.037334  0.035925  0.010161     24.000000
 -0.024889  0.028740  0.005081     24.000000
 -0.012445  0.021555 -0.000000     12.000000
  0.024889  0.014370 -0.020322      6.000000
  0.037334  0.007185 -0.025403     24.000000
  0.049779 -0.000000 -0.030483     24.000000
  0.062224 -0.007185 -0.035564     24.000000
  0.074668 -0.014370 -0.040644     24.000000
  0.087113 -0.021555 -0.045725     24.000000
  0.099558 -0.028740 -0.050805     24.000000
  0.112003 -0.035925 -0.055886     24.000000
  0.124447 -0.043110 -0.060967     24.000000
 -0.124447  0.100590  0.040644     24.000000
 -0.112003  0.093405  0.035564     24.000000
 -0.099558  0.086220  0.030483     24.000000
 -0.087113  0.079035  0.025403     24.000000
 -0.074668  0.071850  0.020322     24.000000
 -0.062224  0.064665  0.015242     24.000000
 -0.049779  0.057480  0.010161     24.000000
 -0.037334  0.050295  0.005081     24.000000
 -0.024889  0.043110 -0.000000     12.000000
  0.037334  0.021555 -0.030483      6.000000
  0.049779  0.014370 -0.035564     24.000000
  0.062224  0.007185 -0.040644     24.000000
  0.074668 -0.000000 -0.045725     24.000000
  0.087113 -0.007185 -0.050805     24.000000
  0.099558 -0.014370 -0.055886     24.000000
  0.112003 -0.021555 -0.060967     24.000000
  0.124447 -0.028740 -0.066047     24.000000
 -0.124447  0.114960  0.035564     24.000000
 -0.112003  0.107775  0.030483     24.000000
 -0.099558  0.100590  0.025403     24.000000
 -0.087113  0.093405  0.020322     24.000000
 -0.074668  0.086220  0.015242     24.000000
 -0.062224  0.079035  0.010161     24.000000
 -0.049779  0.071850  0.005081     24.000000
 -0.037334  0.064665 -0.000000     12.000000
  0.049779  0.028740 -0.040644      6.000000
  0.062224  0.021555 -0.045725     24.000000
  0.074668  0.014370 -0.050805     24.000000
  0.087113  0.007185 -0.055886     24.000000
  0.099558 -0.000000 -0.060967     24.000000
  0.112003 -0.007185 -0.066047     24.000000
  0.124447 -0.014370 -0.071128     24.000000
 -0.124447  0.129330  0.030483     24.000000
 -0.112003  0.122145  0.025403     24.000000
 -0.099558  0.114960  0.020322     24.000000
 -0.087113  0.107775  0.015242     24.000000
 -0.074668  0.100590  0.010161     24.000000
 -0.062224  0.093405  0.005081     24.000000
 -0.049779  0.086220 -0.000000     12.000000
  0.062224  0.035925 -0.050805      6.000000
  0.074668  0.028740 -0.055886     24.000000
  0.087113  0.021555 -0.060967     24.000000
  0.099558  0.014370 -0.066047     24.000000
  0.112003  0.007185 -0.071128     24.000000
  0.124447 -0.000000 -0.076208     24.000000
 -0.124447  0.143700  0.025403     24.000000
 -0.112003  0.136515  0.020322     24.000000
 -0.099558  0.129330  0.015242     24.000000
 -0.087113  0.122145  0.010161     24.000000
 -0.074668  0.114960  0.005081     24.000000
 -0.062224  0.107775 -0.000000     12.000000
  0.074668  0.043110 -0.060967      6.000000
  0.087113  0.035925 -0.066047     24.000000
  0.099558  0.028740 -0.071128     24.000000
  0.112003  0.021555 -0.076208     24.000000
  0.124447  0.014370 -0.081289     24.000000
 -0.124447  0.158070  0.020322     24.000000
 -0.112003  0.150885  0.015242     24.000000
 -0.099558  0.143700  0.010161     24.000000
 -0.087113  0.136515  0.005081     24.000000
 -0.074668  0.129330 -0.000000     12.000000
  0.087113  0.050295 -0.071128      6.000000
  0.099558  0.043110 -0.076208     24.000000
  0.112003  0.035925 -0.081289     24.000000
  0.124447  0.028740 -0.086369     24.000000
 -0.124447  0.172439  0.015242     24.000000
 -0.112003  0.165255  0.010161     24.000000
 -0.099558  0.158070  0.005081     24.000000
 -0.087113  0.150885 -0.000000     12.000000
  0.099558  0.057480 -0.081289      6.000000
  0.112003  0.050295 -0.086369     24.000000
  0.124447  0.043110 -0.091450     24.000000
 -0.124447  0.186809  0.010161     24.000000
 -0.112003  0.179624  0.005081     24.000000
 -0.099558  0.172439 -0.000000     12.000000
  0.112003  0.064665 -0.091450      6.000000
  0.124447  0.057480 -0.096530     24.000000
 -0.124447  0.201179  0.005081     24.000000
 -0.112003  0.193994 -0.000000     12.000000
  0.124447  0.071850 -0.101611      6.000000
 -0.124447  0.215549 -0.000000     12.000000
  0.037334  0.007185 -0.010161     24.000000
  0.049779 -0.000000 -0.015242     48.000000
  0.062224 -0.007185 -0.020322     48.000000
  0.074668 -0.014370 -0.025403     48.000000
  0.087113 -0.021555 -0.030483     48.000000
  0.099558 -0.028740 -0.035564     48.000000
  0.112003 -0.035925 -0.040644     48.000000
  0.124447 -0.043110 -0.045725     48.000000
 -0.124447  0.100590  0.055886     48.000000
  0.049779  0.014370 -0.020322     24.000000
  0.062224  0.007185 -0.025403     48.000000
  0.074668 -0.000000 -0.030483     48.000000
  0.087113 -0.007185 -0.035564     48.000000
  0.099558 -0.014370 -0.040644     48.000000
  0.112003 -0.021555 -0.045725     48.000000
  0.124447 -0.028740 -0.050805     48.000000
 -0.124447  0.114960  0.050805     48.000000
 -0.112003  0.107775  0.045725     48.000000
 -0.099558  0.100590  0.040644     48.000000
 -0.087113  0.093405  0.035564     48.000000
 -0.074668  0.086220  0.030483     48.000000
 -0.062224  0.079035  0.025403     48.000000
 -0.049779  0.071850  0.020322     48.000000
 -0.037334  0.064665  0.015242     48.000000
 -0.024889  0.057480  0.010161     24.000000
  0.062224  0.021555 -0.030483     24.000000
  0.074668  0.014370 -0.035564     48.000000
  0.087113  0.007185 -0.040644     48.000000
  0.099558 -0.000000 -0.045725     48.000000
  0.112003 -0.007185 -0.050805     48.000000
  0.124447 -0.014370 -0.055886     48.000000
 -0.124447  0.129330  0.045725     48.000000
 -0.112003  0.122145  0.040644     48.000000
 -0.099558  0.114960  0.035564     48.000000
 -0.087113  0.107775  0.030483     48.000000
 -0.074668  0.100590  0.025403     48.000000
 -0.062224  0.093405  0.020322     48.000000
 -0.049779  0.086220  0.015242     48.000000
 -0.037334  0.079035  0.010161     24.000000
  0.074668  0.028740 -0.040644     24.000000
  0.087113  0.021555 -0.045725     48.000000
  0.099558  0.014370 -0.050805     48.000000
  0.112003  0.007185 -0.055886     48.000000
  0.124447 -0.000000 -0.060967     48.000000
 -0.124447  0.143700  0.040644     48.000000
 -0.112003  0.136515  0.035564     48.000000
 -0.099558  0.129330  0.030483     48.000000
 -0.087113  0.122145  0.025403     48.000000
 -0.074668  0.114960  0.020322     48.000000
 -0.062224  0.107775  0.015242     48.000000
 -0.049779  0.100590  0.010161     24.000000
  0.087113  0.035925 -0.050805     24.000000
  0.099558  0.028740 -0.055886     48.000000
  0.112003  0.021555 -0.060967     48.000000
  0.124447  0.014370 -0.066047     48.000000
 -0.124447  0.158070  0.035564     48.000000
 -0.112003  0.150885  0.030483     48.000000
 -0.099558  0.143700  0.025403     48.000000
 -0.087113  0.136515  0.020322     48.000000
 -0.074668  0.129330  0.015242     48.000000
 -0.062224  0.122145  0.010161     24.000000
  0.099558  0.043110 -0.060967     24.000000
  0.112003  0.035925 -0.066047     48.000000
  0.124447  0.028740 -0.071128     48.000000
 -0.124447  0.172439  0.030483     48.000000
 -0.112003  0.165255  0.025403     48.000000
 -0.099558  0.158070  0.020322     48.000000
 -0.087113  0.150885  0.015242     48.000000
 -0.074668  0.143700  0.010161     24.000000
  0.112003  0.050295 -0.071128     24.000000
  0.124447  0.043110 -0.076208     48.000000
 -0.124447  0.186809  0.025403     48.000000
 -0.112003  0.179624  0.020322     48.000000
 -0.099558  0.172439  0.015242     48.000000
 -0.087113  0.165255  0.010161     24.000000
  0.124447  0.057480 -0.081289     24.000000
 -0.124447  0.201179  0.020322     48.000000
 -0.112003  0.193994  0.015242     48.000000
 -0.099558  0.186809  0.010161     24.000000
 -0.124447  0.215549  0.015242     24.000000
 -0.112003  0.208364  0.010161     24.000000
  0.074668  0.014370 -0.020322     24.000000
  0.087113  0.007185 -0.025403     48.000000
  0.099558 -0.000000 -0.030483     48.000000
  0.112003 -0.007185 -0.035564     48.000000
  0.124447 -0.014370 -0.040644     48.000000
 -0.124447  0.129330  0.060967     48.000000
 -0.112003  0.122145  0.055886     48.000000
  0.087113  0.021555 -0.030483     24.000000
  0.099558  0.014370 -0.035564     48.000000
  0.112003  0.007185 -0.040644     48.000000
  0.124447 -0.000000 -0.045725     48.000000
 -0.124447  0.143700  0.055886     48.000000
 -0.112003  0.136515  0.050805     48.000000
 -0.099558  0.129330  0.045725     48.000000
 -0.087113  0.122145  0.040644     48.000000
 -0.074668  0.114960  0.035564     48.000000
 -0.062224  0.107775  0.030483     48.000000
 -0.049779  0.100590  0.025403     48.000000
 -0.037334  0.093405  0.020322     24.000000
  0.099558  0.028740 -0.040644     24.000000
  0.112003  0.021555 -0.045725     48.000000
  0.124447  0.014370 -0.050805     48.000000
 -0.124447  0.158070  0.050805     48.000000
 -0.112003  0.150885  0.045725     48.000000
 -0.099558  0.143700  0.040644     48.000000
 -0.087113  0.136515  0.035564     48.000000
 -0.074668  0.129330  0.030483     48.000000
 -0.062224  0.122145  0.025403     48.000000
 -0.049779  0.114960  0.020322     24.000000
  0.112003  0.035925 -0.050805     24.000000
  0.124447  0.028740 -0.055886     48.000000
 -0.124447  0.172439  0.045725     48.000000
 -0.112003  0.165255  0.040644     48.000000
 -0.099558  0.158070  0.035564     48.000000
 -0.087113  0.150885  0.030483     48.000000
 -0.074668  0.143700  0.025403     48.000000
 -0.062224  0.136515  0.020322     24.000000
  0.124447  0.043110 -0.060967     24.000000
 -0.124447  0.186809  0.040644     48.000000
 -0.112003  0.179624  0.035564     48.000000
 -0.099558  0.172439  0.030483     48.000000
 -0.087113  0.165255  0.025403     48.000000
 -0.074668  0.158070  0.020322     24.000000
 -0.124447  0.201179  0.035564     24.000000
 -0.112003  0.193994  0.030483     48.000000
 -0.099558  0.186809  0.025403     48.000000
 -0.087113  0.179624  0.020322     24.000000
 -0.112003  0.208364  0.025403     24.000000
 -0.099558  0.201179  0.020322     24.000000
  0.112003  0.021555 -0.030483     24.000000
  0.124447  0.014370 -0.035564     48.000000
 -0.124447  0.158070  0.066047     48.000000
 -0.112003  0.150885  0.060967     48.000000
 -0.099558  0.143700  0.055886     48.000000
  0.124447  0.028740 -0.040644     24.000000
 -0.124447  0.172439  0.060967     48.000000
 -0.112003  0.165255  0.055886     48.000000
 -0.099558  0.158070  0.050805     48.000000
 -0.087113  0.150885  0.045725     48.000000
 -0.074668  0.143700  0.040644     48.000000
 -0.062224  0.136515  0.035564     48.000000
 -0.049779  0.129330  0.030483     24.000000
 -0.124447  0.186809  0.055886     24.000000
 -0.112003  0.179624  0.050805     48.000000
 -0.099558  0.172439  0.045725     48.000000
 -0.087113  0.165255  0.040644     48.000000
 -0.074668  0.158070  0.035564     48.000000
 -0.062224  0.150885  0.030483     24.000000
 -0.112003  0.193994  0.045725     24.000000
 -0.099558  0.186809  0.040644     48.000000
 -0.087113  0.179624  0.035564     48.000000
 -0.074668  0.172439  0.030483     24.000000
 -0.099558  0.201179  0.035564     24.000000
 -0.087113  0.193994  0.030483     24.000000
 -0.112003  0.179624  0.066047     24.000000
 -0.099558  0.172439  0.060967     48.000000
 -0.087113  0.165255  0.055886     48.000000
 -0.099558  0.186809  0.055886     24.000000
 -0.087113  0.179624  0.050805     48.000000
 -0.074668  0.172439  0.045725     48.000000
 -0.062224  0.165255  0.040644     24.000000
 -0.087113  0.193994  0.045725     24.000000
 -0.074668  0.186809  0.040644     24.000000
 -0.074668  0.186809  0.055886     24.000000
 
 TETIRR: Found   1276 inequivalent tetrahedra from    55566


--------------------------------------------------------------------------------------------------------




 Dimension of arrays:
   k-points           NKPTS =    286   k-points in BZ     NKDIM =    286   number of bands    NBANDS=     36
   number of dos      NEDOS =   1000   number of ions     NIONS =      2
   non local maximal  LDIM  =      4   non local SUM 2l+1 LMDIM =      8
   total plane-waves  NPLWV =  21952
   max r-space proj   IRMAX =   4170   max aug-charges    IRDMAX=  18724
   dimension x,y,z NGX =    28 NGY =   28 NGZ =   28
   dimension x,y,z NGXF=    56 NGYF=   56 NGZF=   56
   support grid    NGXF=    56 NGYF=   56 NGZF=   56
   ions per type =               2
 NGX,Y,Z   is equivalent  to a cutoff of  12.17, 12.17, 12.17 a.u.
 NGXF,Y,Z  is equivalent  to a cutoff of  24.33, 24.33, 24.33 a.u.


 I would recommend the setting:
   dimension x,y,z NGX =    28 NGY =   28 NGZ =   28
 SYSTEM =  unknown system                          
 POSCAR =  si2                                     

 Startparameter for this run:
   NWRITE =      2    write-flag & timer
   PREC   = accura    normal or accurate (medium, high low for compatibility)
   ISTART =      0    job   : 0-new  1-cont  2-samecut
   ICHARG =     11    charge: 1-file 2-atom 10-const
   ISPIN  =      2    spin polarized calculation?
   LNONCOLLINEAR =      F non collinear calculations
   LSORBIT =      F    spin-orbit coupling
   INIWAV =      1    electr: 0-lowe 1-rand  2-diag
   LASPH  =      F    aspherical Exc in radial PAW
   METAGGA=      F    non-selfconsistent MetaGGA calc.

 Electronic Relaxation 1
   ENCUT  =  520.0 eV  38.22 Ry    6.18 a.u.   7.11  7.11  7.11*2*pi/ulx,y,z
   ENINI  =  520.0     initial cutoff
   ENAUG  =  322.1 eV  augmentation charge cutoff
   NELM   =     60;   NELMIN=  2; NELMDL= -5     # of ELM steps 
   EDIFF  = 0.1E-04   stopping-criterion for ELM
   LREAL  =      T    real-space projection
   NLSPLINE    = F    spline interpolate recip. space projectors
   LCOMPAT=      F    compatible to vasp.4.4
   GGA_COMPAT  = T    GGA compatible to vasp.4.4-vasp.4.6
   LMAXPAW     = -100 max onsite density
   LMAXMIX     =    2 max onsite mixed and CHGCAR
   VOSKOWN=      0    Vosko Wilk Nusair interpolation
   ROPT   =   -0.00025
 Ionic relaxation
   EDIFFG = -.1E-01   stopping-criterion for IOM
   NSW    =      0    number of steps for IOM
   NBLOCK =      1;   KBLOCK =      1    inner block; outer block 
   IBRION =     -1    ionic relax: 0-MD 1-quasi-New 2-CG
   NFREE  =      0    steps in history (QN), initial steepest desc. (CG)
   ISIF   =      3    stress and relaxation
   IWAVPR =     10    prediction:  0-non 1-charg 2-wave 3-comb
   ISYM   =      2    0-nonsym 1-usesym 2-fastsym
   LCORR  =      T    Harris-Foulkes like correction to forces

   POTIM  = 0.5000    time-step for ionic-motion
   TEIN   =    0.0    initial temperature
   TEBEG  =    0.0;   TEEND  =   0.0 temperature during run
   SMASS  =  -3.00    Nose mass-parameter (am)
   estimated Nose-frequenzy (Omega)   =  0.10E-29 period in steps =****** mass=  -0.335E-27a.u.
   SCALEE = 1.0000    scale energy and forces
   NPACO  =    256;   APACO  = 16.0  distance and # of slots for P.C.
   PSTRESS=    0.0 pullay stress

  Mass of Ions in am
   POMASS =  28.09
  Ionic Valenz
   ZVAL   =   4.00
  Atomic Wigner-Seitz radii
   RWIGS  =  -1.00
  virtual crystal weights 
   VCA    =   1.00
   NELECT =       8.0000    total number of electrons
   NUPDOWN=      -1.0000    fix difference up-down

 DOS related values:
   EMIN   =  10.00;   EMAX   =-10.00  energy-range for DOS
   EFERMI =   0.00
   ISMEAR =    -5;   SIGMA  =   0.05  broadening in eV -4-tet -1-fermi 0-gaus

 Electronic relaxation 2 (details)
   IALGO  =     68    algorithm
   LDIAG  =      T    sub-space diagonalisation (order eigenvalues)
   LSUBROT=      F    optimize rotation matrix (better conditioning)
   TURBO    =      0    0=normal 1=particle mesh
   IRESTART =      0    0=no restart 2=restart with 2 vectors
   NREBOOT  =      0    no. of reboots
   NMIN     =      0    reboot dimension
   EREF     =   0.00    reference energy to select bands
   IMIX   =      4    mixing-type and parameters
     AMIX     =   0.40;   BMIX     =  1.00
     AMIX_MAG =   1.60;   BMIX_MAG =  1.00
     AMIN     =   0.10
     WC   =   100.;   INIMIX=   1;  MIXPRE=   1;  MAXMIX= -45

 Intra band minimization:
   WEIMIN = 0.0000     energy-eigenvalue tresh-hold
   EBREAK =  0.69E-07  absolut break condition
   DEPER  =   0.30     relativ break condition  

   TIME   =   0.40     timestep for ELM

  volume/ion in A,a.u.               =      19.81       133.67
  Fermi-wavevector in a.u.,A,eV,Ry     =   0.960466  1.815017 12.551302  0.922495
  Thomas-Fermi vector in A             =   2.089753
 
 Write flags
   LWAVE  =      F    write WAVECAR
   LCHARG =      T    write CHGCAR
   LVTOT  =      F    write LOCPOT, total local potential
   LVHAR  =      F    write LOCPOT, Hartree potential only
   LELF   =      F    write electronic localiz. function (ELF)
   LORBIT =     11    0 simple, 1 ext, 2 COOP (PROOUT)


 Dipole corrections
   LMONO  =      F    monopole corrections only (constant potential shift)
   LDIPOL =      F    correct potential (dipole corrections)
   IDIPOL =      0    1-x, 2-y, 3-z, 4-all directions 
   EPSILON=  1.0000000 bulk dielectric constant

 Exchange correlation treatment:
   GGA     =    --    GGA type
   LEXCH   =     8    internal setting for exchange type
   VOSKOWN=      0    Vosko Wilk Nusair interpolation
   LHFCALC =     F    Hartree Fock is set to
   LHFONE  =     F    Hartree Fock one center treatment
   AEXX    =    0.0000 exact exchange contribution

 Linear response parameters
   LEPSILON=     F    determine dielectric tensor
   LRPA    =     F    only Hartree local field effects (RPA)
   LNABLA  =     F    use nabla operator in PAW spheres
   LVEL    =     F    velocity operator in full k-point grid
   LINTERFAST=   F  fast interpolation
   KINTER  =     0    interpolate to denser k-point grid
   CSHIFT  =0.1000    complex shift for real part using Kramers Kronig
   OMEGAMAX=  -1.0    maximum frequency
   DEG_THRESHOLD= 0.2000000E-02 threshold for treating states as degnerate
   RTIME   =    0.100 relaxation time in fs

 Orbital magnetization related:
   ORBITALMAG=     F  switch on orbital magnetization
   LCHIMAG   =     F  perturbation theory with respect to B field
   DQ        =  0.001000  dq finite difference perturbation B field



--------------------------------------------------------------------------------------------------------


 Static calculation
 charge density and potential remain constant during run
 spin polarized calculation
 RMM-DIIS sequential band-by-band and
  variant of blocked Davidson during initial phase
 perform sub-space diagonalisation
    before iterative eigenvector-optimisation
 no mixing
 using additional bands           32
 real space projection scheme for non local part
 use partial core corrections
 calculate Harris-corrections to forces 
   (improved forces if not selfconsistent)
 use gradient corrections 
 WARNING: stress and forces are not correct
  (second derivative of E(xc) not defined)
 use of overlap-Matrix (Vanderbilt PP)
 Fermi weights with tetrahedron method with Bloechl corrections


--------------------------------------------------------------------------------------------------------


  energy-cutoff  :      520.00
  volume of cell :       39.62
      direct lattice vectors                 reciprocal lattice vectors
     3.826436980  0.000000000  0.000000000     0.261339728 -0.150884562 -0.106691497
     1.913218490  3.313791631 -0.000000000     0.000000000  0.301769125 -0.106691497
     1.913218490  1.104597210  3.124272711     0.000000000  0.000000000  0.320074492

  length of vectors
     3.826436980  3.826436980  3.826436980     0.320074492  0.320074492  0.320074492


 
 k-points in units of 2pi/SCALE and weight: pymatgen v1.1 with grid density = 777 / 
   0.00000000  0.00000000  0.00000000       0.000
   0.01244475 -0.00718498 -0.00508055       0.001
   0.02488950 -0.01436996 -0.01016109       0.001
   0.03733425 -0.02155494 -0.01524164       0.001
   0.04977900 -0.02873992 -0.02032219       0.001
   0.06222374 -0.03592490 -0.02540274       0.001
   0.07466849 -0.04310987 -0.03048328       0.001
   0.08711324 -0.05029485 -0.03556383       0.001
   0.09955799 -0.05747983 -0.04064438       0.001
   0.11200274 -0.06466481 -0.04572493       0.001
   0.12444749 -0.07184979 -0.05080547       0.001
   0.01244475  0.00718498 -0.01016109       0.001
   0.02488950 -0.00000000 -0.01524164       0.003
   0.03733425 -0.00718498 -0.02032219       0.003
   0.04977900 -0.01436996 -0.02540274       0.003
   0.06222374 -0.02155494 -0.03048328       0.003
   0.07466849 -0.02873992 -0.03556383       0.003
   0.08711324 -0.03592490 -0.04064438       0.003
   0.09955799 -0.04310987 -0.04572493       0.003
   0.11200274 -0.05029485 -0.05080547       0.003
   0.12444749 -0.05747983 -0.05588602       0.003
  -0.12444749  0.08621975  0.04572493       0.003
  -0.11200274  0.07903477  0.04064438       0.003
  -0.09955799  0.07184979  0.03556383       0.003
  -0.08711324  0.06466481  0.03048328       0.003
  -0.07466849  0.05747983  0.02540274       0.003
  -0.06222374  0.05029485  0.02032219       0.003
  -0.04977900  0.04310987  0.01524164       0.003
  -0.03733425  0.03592490  0.01016109       0.003
  -0.02488950  0.02873992  0.00508055       0.003
  -0.01244475  0.02155494 -0.00000000       0.001
   0.02488950  0.01436996 -0.02032219       0.001
   0.03733425  0.00718498 -0.02540274       0.003
   0.04977900 -0.00000000 -0.03048328       0.003
   0.06222374 -0.00718498 -0.03556383       0.003
   0.07466849 -0.01436996 -0.04064438       0.003
   0.08711324 -0.02155494 -0.04572493       0.003
   0.09955799 -0.02873992 -0.05080547       0.003
   0.11200274 -0.03592490 -0.05588602       0.003
   0.12444749 -0.04310987 -0.06096657       0.003
  -0.12444749  0.10058971  0.04064438       0.003
  -0.11200274  0.09340473  0.03556383       0.003
  -0.09955799  0.08621975  0.03048328       0.003
  -0.08711324  0.07903477  0.02540274       0.003
  -0.07466849  0.07184979  0.02032219       0.003
  -0.06222374  0.06466481  0.01524164       0.003
  -0.04977900  0.05747983  0.01016109       0.003
  -0.03733425  0.05029485  0.00508055       0.003
  -0.02488950  0.04310987 -0.00000000       0.001
   0.03733425  0.02155494 -0.03048328       0.001
   0.04977900  0.01436996 -0.03556383       0.003
   0.06222374  0.00718498 -0.04064438       0.003
   0.07466849 -0.00000000 -0.04572493       0.003
   0.08711324 -0.00718498 -0.05080547       0.003
   0.09955799 -0.01436996 -0.05588602       0.003
   0.11200274 -0.02155494 -0.06096657       0.003
   0.12444749 -0.02873992 -0.06604712       0.003
  -0.12444749  0.11495967  0.03556383       0.003
  -0.11200274  0.10777469  0.03048328       0.003
  -0.09955799  0.10058971  0.02540274       0.003
  -0.08711324  0.09340473  0.02032219       0.003
  -0.07466849  0.08621975  0.01524164       0.003
  -0.06222374  0.07903477  0.01016109       0.003
  -0.04977900  0.07184979  0.00508055       0.003
  -0.03733425  0.06466481 -0.00000000       0.001
   0.04977900  0.02873992 -0.04064438       0.001
   0.06222374  0.02155494 -0.04572493       0.003
   0.07466849  0.01436996 -0.05080547       0.003
   0.08711324  0.00718498 -0.05588602       0.003
   0.09955799 -0.00000000 -0.06096657       0.003
   0.11200274 -0.00718498 -0.06604712       0.003
   0.12444749 -0.01436996 -0.07112766       0.003
  -0.12444749  0.12932962  0.03048328       0.003
  -0.11200274  0.12214465  0.02540274       0.003
  -0.09955799  0.11495967  0.02032219       0.003
  -0.08711324  0.10777469  0.01524164       0.003
  -0.07466849  0.10058971  0.01016109       0.003
  -0.06222374  0.09340473  0.00508055       0.003
  -0.04977900  0.08621975 -0.00000000       0.001
   0.06222374  0.03592490 -0.05080547       0.001
   0.07466849  0.02873992 -0.05588602       0.003
   0.08711324  0.02155494 -0.06096657       0.003
   0.09955799  0.01436996 -0.06604712       0.003
   0.11200274  0.00718498 -0.07112766       0.003
   0.12444749 -0.00000000 -0.07620821       0.003
  -0.12444749  0.14369958  0.02540274       0.003
  -0.11200274  0.13651460  0.02032219       0.003
  -0.09955799  0.12932962  0.01524164       0.003
  -0.08711324  0.12214465  0.01016109       0.003
  -0.07466849  0.11495967  0.00508055       0.003
  -0.06222374  0.10777469 -0.00000000       0.001
   0.07466849  0.04310987 -0.06096657       0.001
   0.08711324  0.03592490 -0.06604712       0.003
   0.09955799  0.02873992 -0.07112766       0.003
   0.11200274  0.02155494 -0.07620821       0.003
   0.12444749  0.01436996 -0.08128876       0.003
  -0.12444749  0.15806954  0.02032219       0.003
  -0.11200274  0.15088456  0.01524164       0.003
  -0.09955799  0.14369958  0.01016109       0.003
  -0.08711324  0.13651460  0.00508055       0.003
  -0.07466849  0.12932962 -0.00000000       0.001
   0.08711324  0.05029485 -0.07112766       0.001
   0.09955799  0.04310987 -0.07620821       0.003
   0.11200274  0.03592490 -0.08128876       0.003
   0.12444749  0.02873992 -0.08636931       0.003
  -0.12444749  0.17243950  0.01524164       0.003
  -0.11200274  0.16525452  0.01016109       0.003
  -0.09955799  0.15806954  0.00508055       0.003
  -0.08711324  0.15088456 -0.00000000       0.001
   0.09955799  0.05747983 -0.08128876       0.001
   0.11200274  0.05029485 -0.08636931       0.003
   0.12444749  0.04310987 -0.09144985       0.003
  -0.12444749  0.18680946  0.01016109       0.003
  -0.11200274  0.17962448  0.00508055       0.003
  -0.09955799  0.17243950 -0.00000000       0.001
   0.11200274  0.06466481 -0.09144985       0.001
   0.12444749  0.05747983 -0.09653040       0.003
  -0.12444749  0.20117942  0.00508055       0.003
  -0.11200274  0.19399444 -0.00000000       0.001
   0.12444749  0.07184979 -0.10161095       0.001
  -0.12444749  0.21554937 -0.00000000       0.001
   0.03733425  0.00718498 -0.01016109       0.003
   0.04977900 -0.00000000 -0.01524164       0.005
   0.06222374 -0.00718498 -0.02032219       0.005
   0.07466849 -0.01436996 -0.02540274       0.005
   0.08711324 -0.02155494 -0.03048328       0.005
   0.09955799 -0.02873992 -0.03556383       0.005
   0.11200274 -0.03592490 -0.04064438       0.005
   0.12444749 -0.04310987 -0.04572493       0.005
  -0.12444749  0.10058971  0.05588602       0.005
   0.04977900  0.01436996 -0.02032219       0.003
   0.06222374  0.00718498 -0.02540274       0.005
   0.07466849 -0.00000000 -0.03048328       0.005
   0.08711324 -0.00718498 -0.03556383       0.005
   0.09955799 -0.01436996 -0.04064438       0.005
   0.11200274 -0.02155494 -0.04572493       0.005
   0.12444749 -0.02873992 -0.05080547       0.005
  -0.12444749  0.11495967  0.05080547       0.005
  -0.11200274  0.10777469  0.04572493       0.005
  -0.09955799  0.10058971  0.04064438       0.005
  -0.08711324  0.09340473  0.03556383       0.005
  -0.07466849  0.08621975  0.03048328       0.005
  -0.06222374  0.07903477  0.02540274       0.005
  -0.04977900  0.07184979  0.02032219       0.005
  -0.03733425  0.06466481  0.01524164       0.005
  -0.02488950  0.05747983  0.01016109       0.003
   0.06222374  0.02155494 -0.03048328       0.003
   0.07466849  0.01436996 -0.03556383       0.005
   0.08711324  0.00718498 -0.04064438       0.005
   0.09955799 -0.00000000 -0.04572493       0.005
   0.11200274 -0.00718498 -0.05080547       0.005
   0.12444749 -0.01436996 -0.05588602       0.005
  -0.12444749  0.12932962  0.04572493       0.005
  -0.11200274  0.12214465  0.04064438       0.005
  -0.09955799  0.11495967  0.03556383       0.005
  -0.08711324  0.10777469  0.03048328       0.005
  -0.07466849  0.10058971  0.02540274       0.005
  -0.06222374  0.09340473  0.02032219       0.005
  -0.04977900  0.08621975  0.01524164       0.005
  -0.03733425  0.07903477  0.01016109       0.003
   0.07466849  0.02873992 -0.04064438       0.003
   0.08711324  0.02155494 -0.04572493       0.005
   0.09955799  0.01436996 -0.05080547       0.005
   0.11200274  0.00718498 -0.05588602       0.005
   0.12444749 -0.00000000 -0.06096657       0.005
  -0.12444749  0.14369958  0.04064438       0.005
  -0.11200274  0.13651460  0.03556383       0.005
  -0.09955799  0.12932962  0.03048328       0.005
  -0.08711324  0.12214465  0.02540274       0.005
  -0.07466849  0.11495967  0.02032219       0.005
  -0.06222374  0.10777469  0.01524164       0.005
  -0.04977900  0.10058971  0.01016109       0.003
   0.08711324  0.03592490 -0.05080547       0.003
   0.09955799  0.02873992 -0.05588602       0.005
   0.11200274  0.02155494 -0.06096657       0.005
   0.12444749  0.01436996 -0.06604712       0.005
  -0.12444749  0.15806954  0.03556383       0.005
  -0.11200274  0.15088456  0.03048328       0.005
  -0.09955799  0.14369958  0.02540274       0.005
  -0.08711324  0.13651460  0.02032219       0.005
  -0.07466849  0.12932962  0.01524164       0.005
  -0.06222374  0.12214465  0.01016109       0.003
   0.09955799  0.04310987 -0.06096657       0.003
   0.11200274  0.03592490 -0.06604712       0.005
   0.12444749  0.02873992 -0.07112766       0.005
  -0.12444749  0.17243950  0.03048328       0.005
  -0.11200274  0.16525452  0.02540274       0.005
  -0.09955799  0.15806954  0.02032219       0.005
  -0.08711324  0.15088456  0.01524164       0.005
  -0.07466849  0.14369958  0.01016109       0.003
   0.11200274  0.05029485 -0.07112766       0.003
   0.12444749  0.04310987 -0.07620821       0.005
  -0.12444749  0.18680946  0.02540274       0.005
  -0.11200274  0.17962448  0.02032219       0.005
  -0.09955799  0.17243950  0.01524164       0.005
  -0.08711324  0.16525452  0.01016109       0.003
   0.12444749  0.05747983 -0.08128876       0.003
  -0.12444749  0.20117942  0.02032219       0.005
  -0.11200274  0.19399444  0.01524164       0.005
  -0.09955799  0.18680946  0.01016109       0.003
  -0.12444749  0.21554937  0.01524164       0.003
  -0.11200274  0.20836440  0.01016109       0.003
   0.07466849  0.01436996 -0.02032219       0.003
   0.08711324  0.00718498 -0.02540274       0.005
   0.09955799 -0.00000000 -0.03048328       0.005
   0.11200274 -0.00718498 -0.03556383       0.005
   0.12444749 -0.01436996 -0.04064438       0.005
  -0.12444749  0.12932962  0.06096657       0.005
  -0.11200274  0.12214465  0.05588602       0.005
   0.08711324  0.02155494 -0.03048328       0.003
   0.09955799  0.01436996 -0.03556383       0.005
   0.11200274  0.00718498 -0.04064438       0.005
   0.12444749 -0.00000000 -0.04572493       0.005
  -0.12444749  0.14369958  0.05588602       0.005
  -0.11200274  0.13651460  0.05080547       0.005
  -0.09955799  0.12932962  0.04572493       0.005
  -0.08711324  0.12214465  0.04064438       0.005
  -0.07466849  0.11495967  0.03556383       0.005
  -0.06222374  0.10777469  0.03048328       0.005
  -0.04977900  0.10058971  0.02540274       0.005
  -0.03733425  0.09340473  0.02032219       0.003
   0.09955799  0.02873992 -0.04064438       0.003
   0.11200274  0.02155494 -0.04572493       0.005
   0.12444749  0.01436996 -0.05080547       0.005
  -0.12444749  0.15806954  0.05080547       0.005
  -0.11200274  0.15088456  0.04572493       0.005
  -0.09955799  0.14369958  0.04064438       0.005
  -0.08711324  0.13651460  0.03556383       0.005
  -0.07466849  0.12932962  0.03048328       0.005
  -0.06222374  0.12214465  0.02540274       0.005
  -0.04977900  0.11495967  0.02032219       0.003
   0.11200274  0.03592490 -0.05080547       0.003
   0.12444749  0.02873992 -0.05588602       0.005
  -0.12444749  0.17243950  0.04572493       0.005
  -0.11200274  0.16525452  0.04064438       0.005
  -0.09955799  0.15806954  0.03556383       0.005
  -0.08711324  0.15088456  0.03048328       0.005
  -0.07466849  0.14369958  0.02540274       0.005
  -0.06222374  0.13651460  0.02032219       0.003
   0.12444749  0.04310987 -0.06096657       0.003
  -0.12444749  0.18680946  0.04064438       0.005
  -0.11200274  0.17962448  0.03556383       0.005
  -0.09955799  0.17243950  0.03048328       0.005
  -0.08711324  0.16525452  0.02540274       0.005
  -0.07466849  0.15806954  0.02032219       0.003
  -0.12444749  0.20117942  0.03556383       0.003
  -0.11200274  0.19399444  0.03048328       0.005
  -0.09955799  0.18680946  0.02540274       0.005
  -0.08711324  0.17962448  0.02032219       0.003
  -0.11200274  0.20836440  0.02540274       0.003
  -0.09955799  0.20117942  0.02032219       0.003
   0.11200274  0.02155494 -0.03048328       0.003
   0.12444749  0.01436996 -0.03556383       0.005
  -0.12444749  0.15806954  0.06604712       0.005
  -0.11200274  0.15088456  0.06096657       0.005
  -0.09955799  0.14369958  0.05588602       0.005
   0.12444749  0.02873992 -0.04064438       0.003
  -0.12444749  0.17243950  0.06096657       0.005
  -0.11200274  0.16525452  0.05588602       0.005
  -0.09955799  0.15806954  0.05080547       0.005
  -0.08711324  0.15088456  0.04572493       0.005
  -0.07466849  0.14369958  0.04064438       0.005
  -0.06222374  0.13651460  0.03556383       0.005
  -0.04977900  0.12932962  0.03048328       0.003
  -0.12444749  0.18680946  0.05588602       0.003
  -0.11200274  0.17962448  0.05080547       0.005
  -0.09955799  0.17243950  0.04572493       0.005
  -0.08711324  0.16525452  0.04064438       0.005
  -0.07466849  0.15806954  0.03556383       0.005
  -0.06222374  0.15088456  0.03048328       0.003
  -0.11200274  0.19399444  0.04572493       0.003
  -0.09955799  0.18680946  0.04064438       0.005
  -0.08711324  0.17962448  0.03556383       0.005
  -0.07466849  0.17243950  0.03048328       0.003
  -0.09955799  0.20117942  0.03556383       0.003
  -0.08711324  0.19399444  0.03048328       0.003
  -0.11200274  0.17962448  0.06604712       0.003
  -0.09955799  0.17243950  0.06096657       0.005
  -0.08711324  0.16525452  0.05588602       0.005
  -0.09955799  0.18680946  0.05588602       0.003
  -0.08711324  0.17962448  0.05080547       0.005
  -0.07466849  0.17243950  0.04572493       0.005
  -0.06222374  0.16525452  0.04064438       0.003
  -0.08711324  0.19399444  0.04572493       0.003
  -0.07466849  0.18680946  0.04064438       0.003
  -0.07466849  0.18680946  0.05588602       0.003
 
 k-points in reciprocal lattice and weights: pymatgen v1.1 with grid density = 777 / 
   0.00000000  0.00000000  0.00000000       0.000
   0.04761905 -0.00000000 -0.00000000       0.001
   0.09523810 -0.00000000 -0.00000000       0.001
   0.14285714  0.00000000  0.00000000       0.001
   0.19047619 -0.00000000 -0.00000000       0.001
   0.23809524  0.00000000  0.00000000       0.001
   0.28571429 -0.00000000  0.00000000       0.001
   0.33333333 -0.00000000  0.00000000       0.001
   0.38095238 -0.00000000 -0.00000000       0.001
   0.42857143  0.00000000  0.00000000       0.001
   0.47619048  0.00000000  0.00000000       0.001
   0.04761905  0.04761905 -0.00000000       0.001
   0.09523810  0.04761905  0.00000000       0.003
   0.14285714  0.04761905  0.00000000       0.003
   0.19047619  0.04761905  0.00000000       0.003
   0.23809524  0.04761905  0.00000000       0.003
   0.28571429  0.04761905  0.00000000       0.003
   0.33333333  0.04761905  0.00000000       0.003
   0.38095238  0.04761905  0.00000000       0.003
   0.42857143  0.04761905  0.00000000       0.003
   0.47619048  0.04761905  0.00000000       0.003
  -0.47619048  0.04761905  0.00000000       0.003
  -0.42857143  0.04761905  0.00000000       0.003
  -0.38095238  0.04761905 -0.00000000       0.003
  -0.33333333  0.04761905  0.00000000       0.003
  -0.28571429  0.04761905  0.00000000       0.003
  -0.23809524  0.04761905  0.00000000       0.003
  -0.19047619  0.04761905  0.00000000       0.003
  -0.14285714  0.04761905  0.00000000       0.003
  -0.09523810  0.04761905  0.00000000       0.003
  -0.04761905  0.04761905  0.00000000       0.001
   0.09523810  0.09523810 -0.00000000       0.001
   0.14285714  0.09523810  0.00000000       0.003
   0.19047619  0.09523810 -0.00000000       0.003
   0.23809524  0.09523810  0.00000000       0.003
   0.28571429  0.09523810  0.00000000       0.003
   0.33333333  0.09523810  0.00000000       0.003
   0.38095238  0.09523810 -0.00000000       0.003
   0.42857143  0.09523810  0.00000000       0.003
   0.47619048  0.09523810  0.00000000       0.003
  -0.47619048  0.09523810  0.00000000       0.003
  -0.42857143  0.09523810  0.00000000       0.003
  -0.38095238  0.09523810  0.00000000       0.003
  -0.33333333  0.09523810  0.00000000       0.003
  -0.28571429  0.09523810  0.00000000       0.003
  -0.23809524  0.09523810  0.00000000       0.003
  -0.19047619  0.09523810  0.00000000       0.003
  -0.14285714  0.09523810  0.00000000       0.003
  -0.09523810  0.09523810  0.00000000       0.001
   0.14285714  0.14285714 -0.00000000       0.001
   0.19047619  0.14285714  0.00000000       0.003
   0.23809524  0.14285714  0.00000000       0.003
   0.28571429  0.14285714  0.00000000       0.003
   0.33333333  0.14285714  0.00000000       0.003
   0.38095238  0.14285714 -0.00000000       0.003
   0.42857143  0.14285714  0.00000000       0.003
   0.47619048  0.14285714  0.00000000       0.003
  -0.47619048  0.14285714  0.00000000       0.003
  -0.42857143  0.14285714  0.00000000       0.003
  -0.38095238  0.14285714  0.00000000       0.003
  -0.33333333  0.14285714  0.00000000       0.003
  -0.28571429  0.14285714  0.00000000       0.003
  -0.23809524  0.14285714  0.00000000       0.003
  -0.19047619  0.14285714  0.00000000       0.003
  -0.14285714  0.14285714  0.00000000       0.001
   0.19047619  0.19047619 -0.00000000       0.001
   0.23809524  0.19047619  0.00000000       0.003
   0.28571429  0.19047619 -0.00000000       0.003
   0.33333333  0.19047619 -0.00000000       0.003
   0.38095238  0.19047619  0.00000000       0.003
   0.42857143  0.19047619  0.00000000       0.003
   0.47619048  0.19047619 -0.00000000       0.003
  -0.47619048  0.19047619  0.00000000       0.003
  -0.42857143  0.19047619  0.00000000       0.003
  -0.38095238  0.19047619  0.00000000       0.003
  -0.33333333  0.19047619  0.00000000       0.003
  -0.28571429  0.19047619  0.00000000       0.003
  -0.23809524  0.19047619 -0.00000000       0.003
  -0.19047619  0.19047619  0.00000000       0.001
   0.23809524  0.23809524  0.00000000       0.001
   0.28571429  0.23809524 -0.00000000       0.003
   0.33333333  0.23809524 -0.00000000       0.003
   0.38095238  0.23809524  0.00000000       0.003
   0.42857143  0.23809524 -0.00000000       0.003
   0.47619048  0.23809524 -0.00000000       0.003
  -0.47619048  0.23809524  0.00000000       0.003
  -0.42857143  0.23809524  0.00000000       0.003
  -0.38095238  0.23809524  0.00000000       0.003
  -0.33333333  0.23809524  0.00000000       0.003
  -0.28571429  0.23809524  0.00000000       0.003
  -0.23809524  0.23809524  0.00000000       0.001
   0.28571429  0.28571429  0.00000000       0.001
   0.33333333  0.28571429  0.00000000       0.003
   0.38095238  0.28571429  0.00000000       0.003
   0.42857143  0.28571429  0.00000000       0.003
   0.47619048  0.28571429  0.00000000       0.003
  -0.47619048  0.28571429  0.00000000       0.003
  -0.42857143  0.28571429  0.00000000       0.003
  -0.38095238  0.28571429  0.00000000       0.003
  -0.33333333  0.28571429  0.00000000       0.003
  -0.28571429  0.28571429  0.00000000       0.001
   0.33333333  0.33333333 -0.00000000       0.001
   0.38095238  0.33333333  0.00000000       0.003
   0.42857143  0.33333333  0.00000000       0.003
   0.47619048  0.33333333  0.00000000       0.003
  -0.47619048  0.33333333  0.00000000       0.003
  -0.42857143  0.33333333  0.00000000       0.003
  -0.38095238  0.33333333  0.00000000       0.003
  -0.33333333  0.33333333  0.00000000       0.001
   0.38095238  0.38095238  0.00000000       0.001
   0.42857143  0.38095238  0.00000000       0.003
   0.47619048  0.38095238  0.00000000       0.003
  -0.47619048  0.38095238  0.00000000       0.003
  -0.42857143  0.38095238  0.00000000       0.003
  -0.38095238  0.38095238  0.00000000       0.001
   0.42857143  0.42857143  0.00000000       0.001
   0.47619048  0.42857143  0.00000000       0.003
  -0.47619048  0.42857143  0.00000000       0.003
  -0.42857143  0.42857143  0.00000000       0.001
   0.47619048  0.47619048  0.00000000       0.001
  -0.47619048  0.47619048  0.00000000       0.001
   0.14285714  0.09523810  0.04761905       0.003
   0.19047619  0.09523810  0.04761905       0.005
   0.23809524  0.09523810  0.04761905       0.005
   0.28571429  0.09523810  0.04761905       0.005
   0.33333333  0.09523810  0.04761905       0.005
   0.38095238  0.09523810  0.04761905       0.005
   0.42857143  0.09523810  0.04761905       0.005
   0.47619048  0.09523810  0.04761905       0.005
  -0.47619048  0.09523810  0.04761905       0.005
   0.19047619  0.14285714  0.04761905       0.003
   0.23809524  0.14285714  0.04761905       0.005
   0.28571429  0.14285714  0.04761905       0.005
   0.33333333  0.14285714  0.04761905       0.005
   0.38095238  0.14285714  0.04761905       0.005
   0.42857143  0.14285714  0.04761905       0.005
   0.47619048  0.14285714  0.04761905       0.005
  -0.47619048  0.14285714  0.04761905       0.005
  -0.42857143  0.14285714  0.04761905       0.005
  -0.38095238  0.14285714  0.04761905       0.005
  -0.33333333  0.14285714  0.04761905       0.005
  -0.28571429  0.14285714  0.04761905       0.005
  -0.23809524  0.14285714  0.04761905       0.005
  -0.19047619  0.14285714  0.04761905       0.005
  -0.14285714  0.14285714  0.04761905       0.005
  -0.09523810  0.14285714  0.04761905       0.003
   0.23809524  0.19047619  0.04761905       0.003
   0.28571429  0.19047619  0.04761905       0.005
   0.33333333  0.19047619  0.04761905       0.005
   0.38095238  0.19047619  0.04761905       0.005
   0.42857143  0.19047619  0.04761905       0.005
   0.47619048  0.19047619  0.04761905       0.005
  -0.47619048  0.19047619  0.04761905       0.005
  -0.42857143  0.19047619  0.04761905       0.005
  -0.38095238  0.19047619  0.04761905       0.005
  -0.33333333  0.19047619  0.04761905       0.005
  -0.28571429  0.19047619  0.04761905       0.005
  -0.23809524  0.19047619  0.04761905       0.005
  -0.19047619  0.19047619  0.04761905       0.005
  -0.14285714  0.19047619  0.04761905       0.003
   0.28571429  0.23809524  0.04761905       0.003
   0.33333333  0.23809524  0.04761905       0.005
   0.38095238  0.23809524  0.04761905       0.005
   0.42857143  0.23809524  0.04761905       0.005
   0.47619048  0.23809524  0.04761905       0.005
  -0.47619048  0.23809524  0.04761905       0.005
  -0.42857143  0.23809524  0.04761905       0.005
  -0.38095238  0.23809524  0.04761905       0.005
  -0.33333333  0.23809524  0.04761905       0.005
  -0.28571429  0.23809524  0.04761905       0.005
  -0.23809524  0.23809524  0.04761905       0.005
  -0.19047619  0.23809524  0.04761905       0.003
   0.33333333  0.28571429  0.04761905       0.003
   0.38095238  0.28571429  0.04761905       0.005
   0.42857143  0.28571429  0.04761905       0.005
   0.47619048  0.28571429  0.04761905       0.005
  -0.47619048  0.28571429  0.04761905       0.005
  -0.42857143  0.28571429  0.04761905       0.005
  -0.38095238  0.28571429  0.04761905       0.005
  -0.33333333  0.28571429  0.04761905       0.005
  -0.28571429  0.28571429  0.04761905       0.005
  -0.23809524  0.28571429  0.04761905       0.003
   0.38095238  0.33333333  0.04761905       0.003
   0.42857143  0.33333333  0.04761905       0.005
   0.47619048  0.33333333  0.04761905       0.005
  -0.47619048  0.33333333  0.04761905       0.005
  -0.42857143  0.33333333  0.04761905       0.005
  -0.38095238  0.33333333  0.04761905       0.005
  -0.33333333  0.33333333  0.04761905       0.005
  -0.28571429  0.33333333  0.04761905       0.003
   0.42857143  0.38095238  0.04761905       0.003
   0.47619048  0.38095238  0.04761905       0.005
  -0.47619048  0.38095238  0.04761905       0.005
  -0.42857143  0.38095238  0.04761905       0.005
  -0.38095238  0.38095238  0.04761905       0.005
  -0.33333333  0.38095238  0.04761905       0.003
   0.47619048  0.42857143  0.04761905       0.003
  -0.47619048  0.42857143  0.04761905       0.005
  -0.42857143  0.42857143  0.04761905       0.005
  -0.38095238  0.42857143  0.04761905       0.003
  -0.47619048  0.47619048  0.04761905       0.003
  -0.42857143  0.47619048  0.04761905       0.003
   0.28571429  0.19047619  0.09523810       0.003
   0.33333333  0.19047619  0.09523810       0.005
   0.38095238  0.19047619  0.09523810       0.005
   0.42857143  0.19047619  0.09523810       0.005
   0.47619048  0.19047619  0.09523810       0.005
  -0.47619048  0.19047619  0.09523810       0.005
  -0.42857143  0.19047619  0.09523810       0.005
   0.33333333  0.23809524  0.09523810       0.003
   0.38095238  0.23809524  0.09523810       0.005
   0.42857143  0.23809524  0.09523810       0.005
   0.47619048  0.23809524  0.09523810       0.005
  -0.47619048  0.23809524  0.09523810       0.005
  -0.42857143  0.23809524  0.09523810       0.005
  -0.38095238  0.23809524  0.09523810       0.005
  -0.33333333  0.23809524  0.09523810       0.005
  -0.28571429  0.23809524  0.09523810       0.005
  -0.23809524  0.23809524  0.09523810       0.005
  -0.19047619  0.23809524  0.09523810       0.005
  -0.14285714  0.23809524  0.09523810       0.003
   0.38095238  0.28571429  0.09523810       0.003
   0.42857143  0.28571429  0.09523810       0.005
   0.47619048  0.28571429  0.09523810       0.005
  -0.47619048  0.28571429  0.09523810       0.005
  -0.42857143  0.28571429  0.09523810       0.005
  -0.38095238  0.28571429  0.09523810       0.005
  -0.33333333  0.28571429  0.09523810       0.005
  -0.28571429  0.28571429  0.09523810       0.005
  -0.23809524  0.28571429  0.09523810       0.005
  -0.19047619  0.28571429  0.09523810       0.003
   0.42857143  0.33333333  0.09523810       0.003
   0.47619048  0.33333333  0.09523810       0.005
  -0.47619048  0.33333333  0.09523810       0.005
  -0.42857143  0.33333333  0.09523810       0.005
  -0.38095238  0.33333333  0.09523810       0.005
  -0.33333333  0.33333333  0.09523810       0.005
  -0.28571429  0.33333333  0.09523810       0.005
  -0.23809524  0.33333333  0.09523810       0.003
   0.47619048  0.38095238  0.09523810       0.003
  -0.47619048  0.38095238  0.09523810       0.005
  -0.42857143  0.38095238  0.09523810       0.005
  -0.38095238  0.38095238  0.09523810       0.005
  -0.33333333  0.38095238  0.09523810       0.005
  -0.28571429  0.38095238  0.09523810       0.003
  -0.47619048  0.42857143  0.09523810       0.003
  -0.42857143  0.42857143  0.09523810       0.005
  -0.38095238  0.42857143  0.09523810       0.005
  -0.33333333  0.42857143  0.09523810       0.003
  -0.42857143  0.47619048  0.09523810       0.003
  -0.38095238  0.47619048  0.09523810       0.003
   0.42857143  0.28571429  0.14285714       0.003
   0.47619048  0.28571429  0.14285714       0.005
  -0.47619048  0.28571429  0.14285714       0.005
  -0.42857143  0.28571429  0.14285714       0.005
  -0.38095238  0.28571429  0.14285714       0.005
   0.47619048  0.33333333  0.14285714       0.003
  -0.47619048  0.33333333  0.14285714       0.005
  -0.42857143  0.33333333  0.14285714       0.005
  -0.38095238  0.33333333  0.14285714       0.005
  -0.33333333  0.33333333  0.14285714       0.005
  -0.28571429  0.33333333  0.14285714       0.005
  -0.23809524  0.33333333  0.14285714       0.005
  -0.19047619  0.33333333  0.14285714       0.003
  -0.47619048  0.38095238  0.14285714       0.003
  -0.42857143  0.38095238  0.14285714       0.005
  -0.38095238  0.38095238  0.14285714       0.005
  -0.33333333  0.38095238  0.14285714       0.005
  -0.28571429  0.38095238  0.14285714       0.005
  -0.23809524  0.38095238  0.14285714       0.003
  -0.42857143  0.42857143  0.14285714       0.003
  -0.38095238  0.42857143  0.14285714       0.005
  -0.33333333  0.42857143  0.14285714       0.005
  -0.28571429  0.42857143  0.14285714       0.003
  -0.38095238  0.47619048  0.14285714       0.003
  -0.33333333  0.47619048  0.14285714       0.003
  -0.42857143  0.38095238  0.19047619       0.003
  -0.38095238  0.38095238  0.19047619       0.005
  -0.33333333  0.38095238  0.19047619       0.005
  -0.38095238  0.42857143  0.19047619       0.003
  -0.33333333  0.42857143  0.19047619       0.005
  -0.28571429  0.42857143  0.19047619       0.005
  -0.23809524  0.42857143  0.19047619       0.003
  -0.33333333  0.47619048  0.19047619       0.003
  -0.28571429  0.47619048  0.19047619       0.003
  -0.28571429  0.47619048  0.23809524       0.003
 
 position of ions in fractional coordinates (direct lattice) 
   0.74999998  0.74999998  0.75000000
   0.50000001  0.49999999  0.50000000
 
 position of ions in cartesian coordinates  (Angst):
   5.73965535  3.31379157  2.34320452
   3.82643698  2.20919438  1.56213635
 


--------------------------------------------------------------------------------------------------------


 k-point  1 :   0.0000 0.0000 0.0000  plane waves:    1067
 k-point  2 :   0.0476-0.0000-0.0000  plane waves:    1061
 k-point  3 :   0.0952-0.0000-0.0000  plane waves:    1052
 k-point  4 :   0.1429 0.0000 0.0000  plane waves:    1058
 k-point  5 :   0.1905-0.0000-0.0000  plane waves:    1058
 k-point  6 :   0.2381 0.0000 0.0000  plane waves:    1071
 k-point  7 :   0.2857-0.0000 0.0000  plane waves:    1071
 k-point  8 :   0.3333-0.0000 0.0000  plane waves:    1059
 k-point  9 :   0.3810-0.0000-0.0000  plane waves:    1059
 k-point 10 :   0.4286 0.0000 0.0000  plane waves:    1074
 k-point 11 :   0.4762 0.0000 0.0000  plane waves:    1068
 k-point 12 :   0.0476 0.0476-0.0000  plane waves:    1062
 k-point 13 :   0.0952 0.0476 0.0000  plane waves:    1052
 k-point 14 :   0.1429 0.0476 0.0000  plane waves:    1049
 k-point 15 :   0.1905 0.0476 0.0000  plane waves:    1056
 k-point 16 :   0.2381 0.0476 0.0000  plane waves:    1063
 k-point 17 :   0.2857 0.0476 0.0000  plane waves:    1071
 k-point 18 :   0.3333 0.0476 0.0000  plane waves:    1069
 k-point 19 :   0.3810 0.0476 0.0000  plane waves:    1066
[...]
     14      23.0631      0.00000
     15      23.2048      0.00000
     16      24.4661      0.00000
     17      24.5630      0.00000
     18      26.1613      0.00000
     19      26.7509      0.00000
     20      27.1872      0.00000
     21      28.8162      0.00000
     22      31.1555      0.00000
     23      31.7704      0.00000
     24      32.9699      0.00000
     25      34.5896      0.00000
     26      35.2056      0.00000
     27      35.7402      0.00000
     28      37.1261      0.00000
     29      37.6549      0.00000
     30      38.5145      0.00000
     31      40.9305      0.00000
     32      43.1110      0.00000
     33      44.1767      0.00000
     34      45.5915      0.00000
     35      46.6144      0.00000
     36      46.9085      0.00000

 k-point   280 :      -0.3810    0.4286    0.1905
  band No.  band energies     occupation 
      1      -2.6199      1.00000
      2      -0.9295      1.00000
      3       1.9710      1.00000
      4       2.6289      1.00000
      5       9.1091      0.00000
      6       9.4144      0.00000
      7      10.9727      0.00000
      8      13.4550      0.00000
      9      15.0805      0.00000
     10      16.8199      0.00000
     11      18.7583      0.00000
     12      20.2288      0.00000
     13      21.0782      0.00000
     14      22.0817      0.00000
     15      22.7482      0.00000
     16      24.5156      0.00000
     17      25.3818      0.00000
     18      26.4175      0.00000
     19      26.7544      0.00000
     20      26.9134      0.00000
     21      29.0761      0.00000
     22      29.6890      0.00000
     23      31.3838      0.00000
     24      33.6544      0.00000
     25      34.7129      0.00000
     26      35.9089      0.00000
     27      36.5297      0.00000
     28      36.7533      0.00000
     29      37.4070      0.00000
     30      39.0172      0.00000
     31      41.3495      0.00000
     32      43.4984      0.00000
     33      43.6649      0.00000
     34      45.4797      0.00000
     35      46.3685      0.00000
     36      47.3517      0.00000

 k-point   281 :      -0.3333    0.4286    0.1905
  band No.  band energies     occupation 
      1      -2.3056      1.00000
      2      -1.2247      1.00000
      3       1.8517      1.00000
      4       2.4871      1.00000
      5       9.3376      0.00000
      6      10.0528      0.00000
      7      10.8491      0.00000
      8      12.4105      0.00000
      9      15.4117      0.00000
     10      17.1032      0.00000
     11      18.4449      0.00000
     12      20.1498      0.00000
     13      21.3956      0.00000
     14      23.0255      0.00000
     15      23.1971      0.00000
     16      24.3319      0.00000
     17      25.2325      0.00000
     18      25.7792      0.00000
     19      26.1699      0.00000
     20      26.9043      0.00000
     21      28.9791      0.00000
     22      30.5521      0.00000
     23      31.4207      0.00000
     24      33.7614      0.00000
     25      34.2285      0.00000
     26      35.0509      0.00000
     27      35.8168      0.00000
     28      36.7471      0.00000
     29      37.8649      0.00000
     30      38.9205      0.00000
     31      41.7992      0.00000
     32      43.2244      0.00000
     33      44.0078      0.00000
     34      45.1872      0.00000
     35      46.2545      0.00000
     36      47.0673      0.00000

 k-point   282 :      -0.2857    0.4286    0.1905
  band No.  band energies     occupation 
      1      -2.2258      1.00000
      2      -1.2964      1.00000
      3       1.7600      1.00000
      4       2.5097      1.00000
      5       9.4765      0.00000
      6      10.3928      0.00000
      7      11.1456      0.00000
      8      11.5632      0.00000
      9      15.4136      0.00000
     10      16.9465      0.00000
     11      18.5860      0.00000
     12      20.2133      0.00000
     13      21.4198      0.00000
     14      22.9241      0.00000
     15      23.9682      0.00000
     16      24.4323      0.00000
     17      24.8225      0.00000
     18      25.5949      0.00000
     19      26.0759      0.00000
     20      26.7660      0.00000
     21      28.9996      0.00000
     22      30.6856      0.00000
     23      32.6560      0.00000
     24      32.9314      0.00000
     25      33.9180      0.00000
     26      34.9026      0.00000
     27      35.4367      0.00000
     28      36.7182      0.00000
     29      38.1988      0.00000
     30      38.6844      0.00000
     31      41.7805      0.00000
     32      43.4391      0.00000
     33      44.1157      0.00000
     34      44.8817      0.00000
     35      46.2672      0.00000
     36      46.9570      0.00000

 k-point   283 :      -0.2381    0.4286    0.1905
  band No.  band energies     occupation 
      1      -2.4651      1.00000
      2      -1.0684      1.00000
      3       1.7429      1.00000
      4       2.6639      1.00000
      5       9.6372      0.00000
      6      10.1499      0.00000
      7      10.6782      0.00000
      8      12.2690      0.00000
      9      15.0742      0.00000
     10      16.5392      0.00000
     11      19.0112      0.00000
     12      20.3946      0.00000
     13      21.0902      0.00000
     14      22.5550      0.00000
     15      23.3170      0.00000
     16      24.7454      0.00000
     17      25.2476      0.00000
     18      25.9602      0.00000
     19      26.4193      0.00000
     20      26.5897      0.00000
     21      29.0101      0.00000
     22      30.8439      0.00000
     23      31.7561      0.00000
     24      33.8555      0.00000
     25      34.1732      0.00000
     26      35.2003      0.00000
     27      35.2752      0.00000
     28      36.7534      0.00000
     29      37.7490      0.00000
     30      38.7046      0.00000
     31      41.7126      0.00000
     32      43.5646      0.00000
     33      43.7833      0.00000
     34      44.9132      0.00000
     35      46.5027      0.00000
     36      47.0968      0.00000

 k-point   284 :      -0.3333    0.4762    0.1905
  band No.  band energies     occupation 
      1      -2.0540      1.00000
      2      -1.4849      1.00000
      3       2.0591      1.00000
      4       2.2766      1.00000
      5       9.1301      0.00000
      6       9.2314      0.00000
      7      11.7258      0.00000
      8      12.5586      0.00000
      9      16.1036      0.00000
     10      16.9620      0.00000
     11      18.6458      0.00000
     12      19.4588      0.00000
     13      22.0856      0.00000
     14      22.9376      0.00000
     15      23.1706      0.00000
     16      24.2401      0.00000
     17      24.3966      0.00000
     18      25.3926      0.00000
     19      26.8659      0.00000
     20      27.0987      0.00000
     21      29.1979      0.00000
     22      29.9390      0.00000
     23      31.0856      0.00000
     24      32.2573      0.00000
     25      35.2894      0.00000
     26      35.8661      0.00000
     27      36.2773      0.00000
     28      36.3414      0.00000
     29      38.2300      0.00000
     30      38.9000      0.00000
     31      42.5038      0.00000
     32      43.4462      0.00000
     33      43.6079      0.00000
     34      44.3639      0.00000
     35      46.4105      0.00000
     36      47.1099      0.00000

 k-point   285 :      -0.2857    0.4762    0.1905
  band No.  band energies     occupation 
      1      -1.9352      1.00000
      2      -1.5770      1.00000
      3       1.8994      1.00000
      4       2.2958      1.00000
      5       9.3101      0.00000
      6      10.0432      0.00000
      7      11.5383      0.00000
      8      11.6013      0.00000
      9      16.1421      0.00000
     10      16.8123      0.00000
     11      18.7722      0.00000
     12      19.5180      0.00000
     13      22.1229      0.00000
     14      22.7607      0.00000
     15      24.1528      0.00000
     16      24.1633      0.00000
     17      24.7653      0.00000
     18      25.1755      0.00000
     19      25.9755      0.00000
     20      26.9437      0.00000
     21      29.3146      0.00000
     22      30.0504      0.00000
     23      32.3510      0.00000
     24      32.5084      0.00000
     25      34.3487      0.00000
     26      35.2029      0.00000
     27      35.7152      0.00000
     28      36.2697      0.00000
     29      38.6755      0.00000
     30      38.7239      0.00000
     31      42.4928      0.00000
     32      43.4160      0.00000
     33      43.9730      0.00000
     34      44.2060      0.00000
     35      46.3133      0.00000
     36      46.9212      0.00000

 k-point   286 :      -0.2857    0.4762    0.2381
  band No.  band energies     occupation 
      1      -1.9818      1.00000
      2      -1.5137      1.00000
      3       1.9081      1.00000
      4       2.2178      1.00000
      5      10.0463      0.00000
      6      10.1268      0.00000
      7      10.8051      0.00000
      8      11.4328      0.00000
      9      16.1209      0.00000
     10      16.8985      0.00000
     11      18.7270      0.00000
     12      19.5230      0.00000
     13      22.0127      0.00000
     14      22.7777      0.00000
     15      24.3068      0.00000
     16      24.3660      0.00000
     17      25.2384      0.00000
     18      25.3127      0.00000
     19      25.7427      0.00000
     20      26.1809      0.00000
     21      29.3835      0.00000
     22      30.1955      0.00000
     23      32.6204      0.00000
     24      33.8627      0.00000
     25      34.0797      0.00000
     26      34.0933      0.00000
     27      35.3224      0.00000
     28      36.0341      0.00000
     29      38.5789      0.00000
     30      38.9579      0.00000
     31      42.5161      0.00000
     32      43.3177      0.00000
     33      43.9385      0.00000
     34      44.5457      0.00000
     35      46.4066      0.00000
     36      46.5558      0.00000


--------------------------------------------------------------------------------------------------------


 soft charge-density along one line, spin component           1
         0         1         2         3         4         5         6         7         8         9
 total charge-density along one line
 
 soft charge-density along one line, spin component           2
         0         1         2         3         4         5         6         7         8         9
 total charge-density along one line
 
 pseudopotential strength for first ion, spin component:           1
 18.401  25.673   0.000   0.000   0.000   0.000   0.000   0.000
 25.673  35.823   0.000   0.000   0.000   0.000   0.000   0.000
  0.000   0.000   4.177  -0.000  -0.000   7.784  -0.000  -0.000
  0.000   0.000  -0.000   4.177  -0.000  -0.000   7.784  -0.000
  0.000   0.000  -0.000  -0.000   4.177  -0.000  -0.000   7.784
  0.000   0.000   7.784  -0.000  -0.000  14.515  -0.000  -0.000
  0.000   0.000  -0.000   7.784  -0.000  -0.000  14.515  -0.000
  0.000   0.000  -0.000  -0.000   7.784  -0.000  -0.000  14.515
 pseudopotential strength for first ion, spin component:           2
 18.401  25.673   0.000   0.000   0.000   0.000   0.000   0.000
 25.673  35.823   0.000   0.000   0.000   0.000   0.000   0.000
  0.000   0.000   4.177  -0.000  -0.000   7.784  -0.000  -0.000
  0.000   0.000  -0.000   4.177  -0.000  -0.000   7.784  -0.000
  0.000   0.000  -0.000  -0.000   4.177  -0.000  -0.000   7.784
  0.000   0.000   7.784  -0.000  -0.000  14.515  -0.000  -0.000
  0.000   0.000  -0.000   7.784  -0.000  -0.000  14.515  -0.000
  0.000   0.000  -0.000  -0.000   7.784  -0.000  -0.000  14.515
 total augmentation occupancy for first ion, spin component:           1
  2.000   0.000   0.000   0.000   0.000   0.000   0.000   0.000
  0.000   0.000   0.000   0.000   0.000   0.000   0.000   0.000
  0.000   0.000   0.667   0.000   0.000   0.000   0.000   0.000
  0.000   0.000   0.000   0.667   0.000   0.000   0.000   0.000
  0.000   0.000   0.000   0.000   0.667   0.000   0.000   0.000
  0.000   0.000   0.000   0.000   0.000   0.000   0.000   0.000
  0.000   0.000   0.000   0.000   0.000   0.000   0.000   0.000
  0.000   0.000   0.000   0.000   0.000   0.000   0.000   0.000
 total augmentation occupancy for first ion, spin component:           2
  0.300   0.000   0.000   0.000   0.000   0.000   0.000   0.000
  0.000   0.000   0.000   0.000   0.000   0.000   0.000   0.000
  0.000   0.000   0.100   0.000   0.000   0.000   0.000   0.000
  0.000   0.000   0.000   0.100   0.000   0.000   0.000   0.000
  0.000   0.000   0.000   0.000   0.100   0.000   0.000   0.000
  0.000   0.000   0.000   0.000   0.000   0.000   0.000   0.000
  0.000   0.000   0.000   0.000   0.000   0.000   0.000   0.000
  0.000   0.000   0.000   0.000   0.000   0.000   0.000   0.000


------------------------ aborting loop because EDIFF is reached ----------------------------------------


 


 total charge     
 
# of ion     s       p       d       tot
----------------------------------------
  1        0.751   0.950   0.000   1.701
  2        0.751   0.950   0.000   1.701
------------------------------------------------
tot        1.502   1.899   0.000   3.402
 


 magnetization (x)
 
# of ion     s       p       d       tot
----------------------------------------
  1       -0.000   0.000   0.000   0.000
  2       -0.000   0.000   0.000   0.000
------------------------------------------------
tot       -0.000   0.000   0.000   0.000
 
    CHARGE:  cpu time    0.1305: real time    0.1362
    FORLOC:  cpu time    0.0002: real time    0.0012
    FORNL :  cpu time    0.8381: real time    0.8413
    STRESS:  cpu time    2.3927: real time    2.3994
    FORCOR:  cpu time    0.0073: real time    0.0095
    FORHAR:  cpu time    0.0012: real time    0.0034
    OFIELD:  cpu time    0.0001: real time    0.0008

  DFT-D2 method for vdW energy calculation
  -------------------------------------------------------------------

  Parameters of vdW forcefield:
         C6(Jnm^6/mol)     R0(A)
   -----------------------------
   Si       9.230          1.716

  IVDW =   1
  VDW_RADIUS =    50.000 A
  VDW_S6 =     0.750
  VDW_SR =     1.000
  VDW_D =    20.000
  LVDW_EWALD = F

  Number of pair interactions contributing to vdW energy:   39400
  Edisp (eV):   -0.46174
    FORVDW:  cpu time    0.0077: real time    0.0088

  FORCE on cell =-STRESS in cart. coord.  units (eV):
  Direction    XX          YY          ZZ          XY          YZ          ZX
  --------------------------------------------------------------------------------------
  Alpha Z     3.39896     3.39896     3.39896
  Ewald     -76.44976   -76.44976   -76.44976     0.00001     0.00000     0.00001
  Hartree     4.93087     4.93087     4.93087    -0.00000    -0.00000    -0.00000
  E(xc)     -25.43113   -25.43113   -25.43113     0.00000     0.00000     0.00000
  Local     -29.06876   -29.06877   -29.06877     0.00000     0.00000     0.00000
  n-local    76.25205    77.73680    80.13727    -0.06140     0.40101     3.53310
  augment   -11.65816   -11.65815   -11.65815    -0.00001    -0.00000    -0.00000
  Kinetic    55.17908    56.67516    59.07080     2.46600     1.91753     2.19352
  Fock        0.00000     0.00000     0.00000     0.00000     0.00000     0.00000
  vdW        -0.73866    -0.73866    -0.73866     0.00000     0.00000     0.00000
  -------------------------------------------------------------------------------------
  Total       0.00042     0.00042     0.00042     0.00000     0.00000    -0.00000
  in kB       0.01683     0.01683     0.01683     0.00000     0.00000    -0.00000
  external pressure =        0.02 kB  Pullay stress =        0.00 kB


 VOLUME and BASIS-vectors are now :
 -----------------------------------------------------------------------------
  energy-cutoff  :      520.00
  volume of cell :       39.62
      direct lattice vectors                 reciprocal lattice vectors
     3.826436980  0.000000000  0.000000000     0.261339728 -0.150884562 -0.106691497
     1.913218490  3.313791631 -0.000000000     0.000000000  0.301769125 -0.106691497
     1.913218490  1.104597210  3.124272711     0.000000000  0.000000000  0.320074492

  length of vectors
     3.826436980  3.826436980  3.826436980     0.320074492  0.320074492  0.320074492


 FORCES acting on ions
    electron-ion (+dipol)            ewald-force                    non-local-force                 convergence-correction
 -----------------------------------------------------------------------------------------------
   0.598E-05 0.295E-05 0.460E-06   0.294E-05 0.510E-06 0.775E-07   -.208E-16 -.677E-16 -.625E-16   -.437E-05 -.181E-05 -.283E-06
   -.258E-06 0.187E-05 0.306E-06   -.294E-05 -.510E-06 -.775E-07   0.278E-16 0.625E-16 0.486E-16   0.123E-05 -.836E-06 -.138E-06
 -----------------------------------------------------------------------------------------------
   0.572E-05 0.482E-05 0.766E-06   -.506E-15 0.960E-17 -.105E-15   0.694E-17 -.520E-17 -.139E-16   -.314E-05 -.265E-05 -.420E-06
 
 
 POSITION                                       TOTAL-FORCE (eV/Angst)
 -----------------------------------------------------------------------------------
      5.73966      3.31379      2.34320         0.000000      0.000000     -0.000000
      3.82644      2.20919      1.56214        -0.000000     -0.000000      0.000000
 -----------------------------------------------------------------------------------
    total drift:                                0.000003      0.000002      0.000000


--------------------------------------------------------------------------------------------------------



  FREE ENERGIE OF THE ION-ELECTRON SYSTEM (eV)
  ---------------------------------------------------
  free  energy   TOTEN  =       -11.30096816 eV

  energy  without entropy=      -11.30096816  energy(sigma->0) =      -11.30096816
 


--------------------------------------------------------------------------------------------------------


    POTLOK:  cpu time    0.0123: real time    0.0128


--------------------------------------------------------------------------------------------------------


     LOOP+:  cpu time   62.8115: real time   63.1347
    4ORBIT:  cpu time    0.0000: real time    0.0000
 


 total charge     
 
# of ion     s       p       d       tot
----------------------------------------
  1        0.751   0.950   0.000   1.701
  2        0.751   0.950   0.000   1.701
------------------------------------------------
tot        1.502   1.899   0.000   3.402
 


 magnetization (x)
 
# of ion     s       p       d       tot
----------------------------------------
  1       -0.000   0.000   0.000   0.000
  2       -0.000   0.000   0.000   0.000
------------------------------------------------
tot       -0.000   0.000   0.000   0.000
 
 BZINTS: Fermi energy:  5.987264;  8.000000 electrons
         Band energy:   6.742827;  BLOECHL correction:  0.000000

 total amount of memory used by VASP on root node    43475. kBytes
========================================================================

   base      :      30000. kBytes
   nonlr-proj:        702. kBytes
   fftplans  :        303. kBytes
   grid      :       2245. kBytes
   one-center:         12. kBytes
   wavefun   :      10213. kBytes
 
  
  
 General timing and accounting informations for this job:
 ========================================================
  
                  Total CPU time used (sec):       71.451
                            User time (sec):       66.027
                          System time (sec):        5.424
                         Elapsed time (sec):       71.912
  
                   Maximum memory used (kb):       95048.
                   Average memory used (kb):           0.
  
                          Minor page faults:       170341
                          Major page faults:            2
                 Voluntary context switches:         1494
