 vasp.5.4.1 05Feb16 (build Sep 02 2018 21:45:25) complex                        
  
 executed on           IFC91_ompi date 2018.09.04  02:50:09
 running on   40 total cores
 distrk:  each k-point on   40 cores,    1 groups
 distr:  one band on NCORES_PER_BAND=  20 cores,    2 groups


--------------------------------------------------------------------------------------------------------


 INCAR:
 POTCAR:    PAW_PBE Ag_pv 09Dec2005               
 POTCAR:    PAW_PBE Te 08Apr2002                  

 ----------------------------------------------------------------------------- 
|                                                                             |
|           W    W    AA    RRRRR   N    N  II  N    N   GGGG   !!!           |
|           W    W   A  A   R    R  NN   N  II  NN   N  G    G  !!!           |
|           W    W  A    A  R    R  N N  N  II  N N  N  G       !!!           |
|           W WW W  AAAAAA  RRRRR   N  N N  II  N  N N  G  GGG   !            |
|           WW  WW  A    A  R   R   N   NN  II  N   NN  G    G                |
|           W    W  A    A  R    R  N    N  II  N    N   GGGG   !!!           |
|                                                                             |
|      For optimal performance we recommend to set                            |
|        NCORE= 4 - approx SQRT( number of cores)                             |
|      NCORE specifies how many cores store one orbital (NPAR=cpu/NCORE).     |
|      This setting can  greatly improve the performance of VASP for DFT.     |
|      The default, NPAR=number of cores might be grossly inefficient         |
|      on modern multi-core architectures or massively parallel machines.     |
|      Do your own testing !!!!                                               |
|      Unfortunately you need to use the default for GW and RPA calculations. |
|      (for HF NCORE is supported but not extensively tested yet)             |
|                                                                             |
 ----------------------------------------------------------------------------- 

 POTCAR:    PAW_PBE Ag_pv 09Dec2005               
   VRHFIN =Ag : s1 d10                                                          
   LEXCH  = PE                                                                  
   EATOM  =  3061.0398 eV,  224.9801 Ry                                         
                                                                                
   TITEL  = PAW_PBE Ag_pv 09Dec2005                                             
   LULTRA =        F    use ultrasoft PP ?                                      
   IUNSCR =        1    unscreen: 0-lin 1-nonlin 2-no                           
   RPACOR =    2.000    partial core radius                                     
   POMASS =  107.868; ZVAL   =   17.000    mass and valenz                      
   RCORE  =    2.200    outmost cutoff radius                                   
   RWIGS  =    2.300; RWIGS  =    1.217    wigner-seitz radius (au A)           
   ENMAX  =  297.865; ENMIN  =  223.399 eV                                      
   ICORE  =        3    local potential                                         
   LCOR   =        T    correct aug charges                                     
   LPAW   =        T    paw PP                                                  
   EAUG   =  532.843                                                            
   DEXC   =    0.000                                                            
   RMAX   =    2.253    core radius for proj-oper                               
   RAUG   =    1.300    factor for augmentation sphere                          
   RDEP   =    2.266    radius for radial grids                                 
   RDEPT  =    1.838    core radius for aug-charge                              
                                                                                
   Atomic configuration                                                         
   12 entries                                                                   
     n  l   j            E        occ.                                          
     1  0  0.50    -25324.9161   2.0000                                         
     2  0  0.50     -3728.5341   2.0000                                         
     2  1  1.50     -3344.0404   6.0000                                         
     3  0  0.50      -683.5581   2.0000                                         
     3  1  1.50      -557.3225   6.0000                                         
     3  2  2.50      -358.3853  10.0000                                         
     4  0  0.50       -95.0341   2.0000                                         
     5  0  0.50        -4.4045   1.0000                                         
     4  1  1.50       -58.5511   6.0000                                         
     5  1  0.50        -1.3606   0.0000                                         
     4  2  2.50        -7.4440  10.0000                                         
     4  3  2.50        -1.3606   0.0000                                         
   Description                                                                  
     l       E           TYP  RCUT    TYP  RCUT                                 
     0     -4.4044681     23  2.200                                             
     0     54.4233040     23  2.200                                             
     1    -58.5511049     23  1.900                                             
     1     27.2116520     23  1.900                                             
     2     -7.4439781     23  2.200                                             
     2     -8.8045607     23  2.200                                             
     3     -4.0817478     23  2.200                                             
  local pseudopotential read in
  partial core-charges read in
  partial kinetic energy density read in
  atomic valenz-charges read in
  non local Contribution for L=           0  read in
    real space projection operators read in
  non local Contribution for L=           0  read in
    real space projection operators read in
  non local Contribution for L=           1  read in
    real space projection operators read in
  non local Contribution for L=           1  read in
    real space projection operators read in
  non local Contribution for L=           2  read in
    real space projection operators read in
  non local Contribution for L=           2  read in
    real space projection operators read in
    PAW grid and wavefunctions read in
 
   number of l-projection  operators is LMAX  =           6
   number of lm-projection operators is LMMAX =          18
 
 POTCAR:    PAW_PBE Te 08Apr2002                  
   VRHFIN =Te: s2p4                                                             
   LEXCH  = PE                                                                  
   EATOM  =   223.2721 eV,   16.4100 Ry                                         
                                                                                
   TITEL  = PAW_PBE Te 08Apr2002                                                
   LULTRA =        F    use ultrasoft PP ?                                      
   IUNSCR =        1    unscreen: 0-lin 1-nonlin 2-no                           
   RPACOR =    2.200    partial core radius                                     
   POMASS =  127.600; ZVAL   =    6.000    mass and valenz                      
   RCORE  =    2.300    outmost cutoff radius                                   
   RWIGS  =    2.900; RWIGS  =    1.535    wigner-seitz radius (au A)           
   ENMAX  =  174.982; ENMIN  =  131.236 eV                                      
   ICORE  =        3    local potential                                         
   LCOR   =        T    correct aug charges                                     
   LPAW   =        T    paw PP                                                  
   EAUG   =  368.792                                                            
   DEXC   =    0.000                                                            
   RMAX   =    2.345    core radius for proj-oper                               
   RAUG   =    1.300    factor for augmentation sphere                          
   RDEP   =    2.397    radius for radial grids                                 
   RDEPT  =    2.174    core radius for aug-charge                              
                                                                                
   Atomic configuration                                                         
   13 entries                                                                   
     n  l   j            E        occ.                                          
     1  0  0.50    -31621.2075   2.0000                                         
     2  0  0.50     -4848.7941   2.0000                                         
     2  1  1.50     -4352.1960   6.0000                                         
     3  0  0.50      -964.9612   2.0000                                         
     3  1  1.50      -803.6179   6.0000                                         
     3  2  2.50      -559.8710  10.0000                                         
     4  0  0.50      -164.3522   2.0000                                         
     4  1  1.50      -114.3756   6.0000                                         
     4  2  2.50       -41.6483  10.0000                                         
     5  0  0.50       -15.1072   2.0000                                         
     5  1  0.50        -5.9526   4.0000                                         
     5  2  1.50        -5.4423   0.0000                                         
     4  3  2.50        -5.4423   0.0000                                         
   Description                                                                  
     l       E           TYP  RCUT    TYP  RCUT                                 
     0    -15.1072389     23  2.300                                             
     0    -16.4678215     23  2.300                                             
     1     -5.9526306     23  2.300                                             
     1     -2.4873968     23  2.300                                             
     2     -5.4423304     23  2.300                                             
     3     -1.3605826     23  2.300                                             
  local pseudopotential read in
  partial core-charges read in
  partial kinetic energy density read in
  atomic valenz-charges read in
  non local Contribution for L=           0  read in
    real space projection operators read in
  non local Contribution for L=           0  read in
    real space projection operators read in
  non local Contribution for L=           1  read in
    real space projection operators read in
  non local Contribution for L=           1  read in
    real space projection operators read in
  non local Contribution for L=           2  read in
    real space projection operators read in
    PAW grid and wavefunctions read in
 
   number of l-projection  operators is LMAX  =           5
   number of lm-projection operators is LMMAX =          13
 

 ----------------------------------------------------------------------------- 
|                                                                             |
|  ADVICE TO THIS USER RUNNING 'VASP/VAMP'   (HEAR YOUR MASTER'S VOICE ...):  |
|                                                                             |
|      You have a (more or less) 'small supercell' and for smaller cells      |
|      it is recommended  to use the reciprocal-space projection scheme!      |
|      The real space optimization is not  efficient for small cells and it   |
|      is also less accurate ...                                              |
|      Therefore set LREAL=.FALSE. in the  INCAR file                         |
|                                                                             |
 ----------------------------------------------------------------------------- 

 Optimization of the real space projectors (new method)

 maximal supplied QI-value         = 17.01
 optimisation between [QCUT,QGAM] = [ 11.57, 23.30] = [ 37.45,152.03] Ry 
 Optimized for a Real-space Cutoff    1.40 Angstroem

   l    n(q)    QCUT    max X(q) W(low)/X(q) W(high)/X(q)  e(spline) 
   0     10    11.565    22.935    0.68E-04    0.37E-04    0.90E-07
   0     10    11.565     9.539    0.42E-04    0.30E-04    0.69E-07
   1      9    11.565     2.576    0.90E-04    0.83E-04    0.89E-07
   1      9    11.565     3.245    0.21E-03    0.17E-03    0.18E-06
   2      9    11.565    63.729    0.11E-03    0.14E-03    0.17E-06
   2      9    11.565    61.202    0.11E-03    0.14E-03    0.17E-06
 Optimization of the real space projectors (new method)

 maximal supplied QI-value         = 16.25
 optimisation between [QCUT,QGAM] = [ 11.54, 23.24] = [ 37.28,151.24] Ry 
 Optimized for a Real-space Cutoff    1.36 Angstroem

   l    n(q)    QCUT    max X(q) W(low)/X(q) W(high)/X(q)  e(spline) 
   0      9    11.539   224.858    0.53E-04    0.69E-04    0.12E-06
   0      9    11.539   205.313    0.53E-04    0.69E-04    0.12E-06
   1      9    11.539   119.695    0.25E-03    0.13E-04    0.15E-06
   1      9    11.539    84.282    0.24E-03    0.13E-04    0.15E-06
   2      9    11.539     5.599    0.30E-04    0.97E-04    0.54E-07
  PAW_PBE Ag_pv 09Dec2005               :
 energy of atom  1       EATOM=-3061.0398
 kinetic energy error for atom=    0.0181 (will be added to EATOM!!)
  PAW_PBE Te 08Apr2002                  :
 energy of atom  2       EATOM= -223.2721
 kinetic energy error for atom=    0.0007 (will be added to EATOM!!)
 
 
 POSCAR: Ag21                                    
  positions in direct lattice
  velocities in cartesian coordinates
 exchange correlation table for  LEXCH =        8
   RHO(1)=    0.500       N(1)  =     2000
   RHO(2)=  100.500       N(2)  =     4000
 


--------------------------------------------------------------------------------------------------------


 ion  position               nearest neighbor table
   1  0.998  0.338  0.248-   2 2.90   2 2.90   2 2.90
   2  0.664  0.005  0.248-   1 2.90   1 2.90   1 2.90
 
  LATTYP: Found a hexagonal cell.
 ALAT       =     5.0249749181
 C/A-ratio  =    13.4889345825
  
  Lattice vectors:
  
 A1 = (   2.5124874591,  -4.3517559325,   0.0000000000)
 A2 = (  -5.0249749181,   0.0000000000,   0.0000000000)
 A3 = (   0.0000000000,   0.0000000000, -67.7815579489)


Analysis of symmetry for initial positions (statically):
=====================================================================
 Subroutine PRICEL returns:
 Original cell was already a primitive cell.
 

 Routine SETGRP: Setting up the symmetry group for a 
 hexagonal supercell.


 Subroutine GETGRP returns: Found  1 space group operations
 (whereof  1 operations were pure point group operations)
 out of a pool of 24 trial point group operations.


The static configuration has the point symmetry C_1 .


Analysis of symmetry for dynamics (positions and initial velocities):
=====================================================================
 Subroutine PRICEL returns:
 Original cell was already a primitive cell.
 

 Routine SETGRP: Setting up the symmetry group for a 
 hexagonal supercell.


 Subroutine GETGRP returns: Found  1 space group operations
 (whereof  1 operations were pure point group operations)
 out of a pool of 24 trial point group operations.


The dynamic configuration has the point symmetry C_1 .


Analysis of constrained symmetry for selective dynamics:
=====================================================================
 Subroutine PRICEL returns:
 Original cell was already a primitive cell.
 

 Routine SETGRP: Setting up the symmetry group for a 
 hexagonal supercell.


 Subroutine GETGRP returns: Found  1 space group operations
 (whereof  1 operations were pure point group operations)
 out of a pool of 24 trial point group operations.


The constrained configuration has the point symmetry C_1 .


 Subroutine INISYM returns: Found  1 space group operations
 (whereof  1 operations are pure point group operations),
 and found     1 'primitive' translations

 
 
 KPOINTS: long high symmetry lines for hexagonal s
  interpolating k-points between supplied coordinates
  k-points in reciprocal lattice
Space group operators:
 irot       det(A)        alpha          n_x          n_y          n_z        tau_x        tau_y        tau_z
    1     1.000000     0.000001     1.000000     0.000000     0.000000     0.000000     0.000000     0.000000


--------------------------------------------------------------------------------------------------------




 Dimension of arrays:
   k-points           NKPTS =    600   k-points in BZ     NKDIM =    600   number of bands    NBANDS=     16
   number of dos      NEDOS =    301   number of ions     NIONS =      2
   non local maximal  LDIM  =      6   non local SUM 2l+1 LMDIM =     18
   total plane-waves  NPLWV = 806400
   max r-space proj   IRMAX =   6352   max aug-charges    IRDMAX=  31839
   dimension x,y,z NGX =    40 NGY =   40 NGZ =  504
   dimension x,y,z NGXF=    80 NGYF=   80 NGZF= 1008
   support grid    NGXF=    80 NGYF=   80 NGZF= 1008
   ions per type =               1   1
 NGX,Y,Z   is equivalent  to a cutoff of  13.23, 13.23, 12.36 a.u.
 NGXF,Y,Z  is equivalent  to a cutoff of  26.47, 26.47, 24.72 a.u.


 I would recommend the setting:
   dimension x,y,z NGX =    37 NGY =   37 NGZ =  504
 SYSTEM =  unknown system                          
 POSCAR =  Ag21                                    

 Startparameter for this run:
   NWRITE =      2    write-flag & timer
   PREC   = accura    normal or accurate (medium, high low for compatibility)
   ISTART =      1    job   : 0-new  1-cont  2-samecut
   ICHARG =     11    charge: 1-file 2-atom 10-const
   ISPIN  =      1    spin polarized calculation?
   LNONCOLLINEAR =      F non collinear calculations
   LSORBIT =      F    spin-orbit coupling
   INIWAV =      1    electr: 0-lowe 1-rand  2-diag
   LASPH  =      F    aspherical Exc in radial PAW
   METAGGA=      F    non-selfconsistent MetaGGA calc.

 Electronic Relaxation 1
   ENCUT  =  520.0 eV  38.22 Ry    6.18 a.u.   9.34  9.34126.03*2*pi/ulx,y,z
   ENINI  =  520.0     initial cutoff
   ENAUG  =  532.8 eV  augmentation charge cutoff
   NELM   =    100;   NELMIN=  2; NELMDL=  0     # of ELM steps 
   EDIFF  = 0.1E-04   stopping-criterion for ELM
   LREAL  =      T    real-space projection
   NLSPLINE    = F    spline interpolate recip. space projectors
   LCOMPAT=      F    compatible to vasp.4.4
   GGA_COMPAT  = T    GGA compatible to vasp.4.4-vasp.4.6
   LMAXPAW     = -100 max onsite density
   LMAXMIX     =    2 max onsite mixed and CHGCAR
   VOSKOWN=      0    Vosko Wilk Nusair interpolation
   ROPT   =   -0.00025  -0.00025
 Ionic relaxation
   EDIFFG = -.1E-02   stopping-criterion for IOM
   NSW    =      0    number of steps for IOM
   NBLOCK =      1;   KBLOCK =      1    inner block; outer block 
   IBRION =     -1    ionic relax: 0-MD 1-quasi-New 2-CG
   NFREE  =      0    steps in history (QN), initial steepest desc. (CG)
   ISIF   =      2    stress and relaxation
   IWAVPR =     10    prediction:  0-non 1-charg 2-wave 3-comb
   ISYM   =      2    0-nonsym 1-usesym 2-fastsym
   LCORR  =      T    Harris-Foulkes like correction to forces

   POTIM  = 0.5000    time-step for ionic-motion
   TEIN   =    0.0    initial temperature
   TEBEG  =    0.0;   TEEND  =   0.0 temperature during run
   SMASS  =  -3.00    Nose mass-parameter (am)
   estimated Nose-frequenzy (Omega)   =  0.10E-29 period in steps =****** mass=  -0.577E-27a.u.
   SCALEE = 1.0000    scale energy and forces
   NPACO  =    256;   APACO  = 16.0  distance and # of slots for P.C.
   PSTRESS=    0.0 pullay stress

  Mass of Ions in am
   POMASS = 107.87127.60
  Ionic Valenz
   ZVAL   =  17.00  6.00
  Atomic Wigner-Seitz radii
   RWIGS  =  -1.00 -1.00
  virtual crystal weights 
   VCA    =   1.00  1.00
   NELECT =      23.0000    total number of electrons
   NUPDOWN=      -1.0000    fix difference up-down

 DOS related values:
   EMIN   =  10.00;   EMAX   =-10.00  energy-range for DOS
   EFERMI =   0.00
   ISMEAR =     0;   SIGMA  =   0.05  broadening in eV -4-tet -1-fermi 0-gaus

 Electronic relaxation 2 (details)
   IALGO  =     68    algorithm
   LDIAG  =      T    sub-space diagonalisation (order eigenvalues)
   LSUBROT=      F    optimize rotation matrix (better conditioning)
   TURBO    =      0    0=normal 1=particle mesh
   IRESTART =      0    0=no restart 2=restart with 2 vectors
   NREBOOT  =      0    no. of reboots
   NMIN     =      0    reboot dimension
   EREF     =   0.00    reference energy to select bands
   IMIX   =      4    mixing-type and parameters
     AMIX     =   0.40;   BMIX     =  1.00
     AMIX_MAG =   1.60;   BMIX_MAG =  1.00
     AMIN     =   0.10
     WC   =   100.;   INIMIX=   1;  MIXPRE=   1;  MAXMIX= -45

 Intra band minimization:
   WEIMIN = 0.0000     energy-eigenvalue tresh-hold
   EBREAK =  0.16E-06  absolut break condition
   DEPER  =   0.30     relativ break condition  

   TIME   =   0.40     timestep for ELM

  volume/ion in A,a.u.               =     741.11      5001.23
  Fermi-wavevector in a.u.,A,eV,Ry     =   0.408333  0.771637  2.268575  0.166736
  Thomas-Fermi vector in A             =   1.362577
 
 Write flags
   LWAVE  =      F    write WAVECAR
   LCHARG =      T    write CHGCAR
   LVTOT  =      F    write LOCPOT, total local potential
   LVHAR  =      F    write LOCPOT, Hartree potential only
   LELF   =      F    write electronic localiz. function (ELF)
   LORBIT =     11    0 simple, 1 ext, 2 COOP (PROOUT)


 Dipole corrections
   LMONO  =      F    monopole corrections only (constant potential shift)
   LDIPOL =      F    correct potential (dipole corrections)
   IDIPOL =      0    1-x, 2-y, 3-z, 4-all directions 
   EPSILON=  1.0000000 bulk dielectric constant

 Exchange correlation treatment:
   GGA     =    --    GGA type
   LEXCH   =     8    internal setting for exchange type
   VOSKOWN=      0    Vosko Wilk Nusair interpolation
   LHFCALC =     F    Hartree Fock is set to
   LHFONE  =     F    Hartree Fock one center treatment
   AEXX    =    0.0000 exact exchange contribution

 Linear response parameters
   LEPSILON=     F    determine dielectric tensor
   LRPA    =     F    only Hartree local field effects (RPA)
   LNABLA  =     F    use nabla operator in PAW spheres
   LVEL    =     F    velocity operator in full k-point grid
   LINTERFAST=   F  fast interpolation
   KINTER  =     0    interpolate to denser k-point grid
   CSHIFT  =0.1000    complex shift for real part using Kramers Kronig
   OMEGAMAX=  -1.0    maximum frequency
   DEG_THRESHOLD= 0.2000000E-02 threshold for treating states as degnerate
   RTIME   =    0.100 relaxation time in fs

 Orbital magnetization related:
   ORBITALMAG=     F  switch on orbital magnetization
   LCHIMAG   =     F  perturbation theory with respect to B field
   DQ        =  0.001000  dq finite difference perturbation B field


 ----------------------------------------------------------------------------- 
|                                                                             |
|           W    W    AA    RRRRR   N    N  II  N    N   GGGG   !!!           |
|           W    W   A  A   R    R  NN   N  II  NN   N  G    G  !!!           |
|           W    W  A    A  R    R  N N  N  II  N N  N  G       !!!           |
|           W WW W  AAAAAA  RRRRR   N  N N  II  N  N N  G  GGG   !            |
|           WW  WW  A    A  R   R   N   NN  II  N   NN  G    G                |
|           W    W  A    A  R    R  N    N  II  N    N   GGGG   !!!           |
|                                                                             |
|      One of the lattice vectors is very long (>50 A), but AMIN is rather    |
|      large. This can spoil convergence since charge sloshing might occur    |
|      along the long lattice vector. If problems with convergence are        |
|      observed, try to decrease AMIN to a smaller values (e.g. 0.01).        |
|      Note: this warning only applies if the selfconsistency cycle is used.  |
|                                                                             |
 ----------------------------------------------------------------------------- 



--------------------------------------------------------------------------------------------------------


 Static calculation
 charge density and potential remain constant during run
 non-spin polarized calculation
 RMM-DIIS sequential band-by-band and
  variant of blocked Davidson during initial phase
 perform sub-space diagonalisation
    before iterative eigenvector-optimisation
 no mixing
 using additional bands            4
 real space projection scheme for non local part
 use partial core corrections
 calculate Harris-corrections to forces 
   (improved forces if not selfconsistent)
 use gradient corrections 
 WARNING: stress and forces are not correct
  (second derivative of E(xc) not defined)
 use of overlap-Matrix (Vanderbilt PP)
 Gauss-broadening in eV      SIGMA  =   0.05


--------------------------------------------------------------------------------------------------------


  energy-cutoff  :      520.00
  volume of cell :     1482.21
      direct lattice vectors                 reciprocal lattice vectors
     5.024974918  0.000000000  0.000000000     0.199005968 -0.114896149  0.000000000
     2.512487459  4.351755932  0.000000000     0.000000000  0.229792299  0.000000000
     0.000000000  0.000000000 67.781557949     0.000000000  0.000000000  0.014753276

  length of vectors
     5.024974918  5.024974918 67.781557949     0.229792299  0.229792299  0.014753276


 
 old parameters found on file WAVECAR:
  energy-cutoff  :      520.00
  volume of cell :     1482.21
      direct lattice vectors                 reciprocal lattice vectors
     5.024974918  0.000000000  0.000000000     0.199005968 -0.114896149  0.000000000
     2.512487459  4.351755932  0.000000000     0.000000000  0.229792299  0.000000000
     0.000000000  0.000000000 67.781557949     0.000000000  0.000000000  0.014753276

  length of vectors

 
 k-points in units of 2pi/SCALE and weight: long high symmetry lines for hexagonal s
   0.00000000  0.00000000  0.00000000       0.002
   0.00050001 -0.00028868  0.00000000       0.002
   0.00100003 -0.00057737  0.00000000       0.002
   0.00150004 -0.00086605  0.00000000       0.002
   0.00200006 -0.00115474  0.00000000       0.002
   0.00250007 -0.00144342  0.00000000       0.002
   0.00300009 -0.00173210  0.00000000       0.002
   0.00350010 -0.00202079  0.00000000       0.002
   0.00400012 -0.00230947  0.00000000       0.002
   0.00450013 -0.00259815  0.00000000       0.002
   0.00500015 -0.00288684  0.00000000       0.002
   0.00550016 -0.00317552  0.00000000       0.002
   0.00600018 -0.00346421  0.00000000       0.002
   0.00650019 -0.00375289  0.00000000       0.002
   0.00700021 -0.00404157  0.00000000       0.002
   0.00750022 -0.00433026  0.00000000       0.002
   0.00800024 -0.00461894  0.00000000       0.002
   0.00850025 -0.00490762  0.00000000       0.002
   0.00900027 -0.00519631  0.00000000       0.002
   0.00950028 -0.00548499  0.00000000       0.002
   0.01000030 -0.00577368  0.00000000       0.002
   0.01050031 -0.00606236  0.00000000       0.002
   0.01100033 -0.00635104  0.00000000       0.002
   0.01150034 -0.00663973  0.00000000       0.002
   0.01200036 -0.00692841  0.00000000       0.002
   0.01250037 -0.00721709  0.00000000       0.002
   0.01300039 -0.00750578  0.00000000       0.002
   0.01350040 -0.00779446  0.00000000       0.002
   0.01400042 -0.00808315  0.00000000       0.002
   0.01450043 -0.00837183  0.00000000       0.002
   0.01500045 -0.00866051  0.00000000       0.002
   0.01550046 -0.00894920  0.00000000       0.002
   0.01600048 -0.00923788  0.00000000       0.002
   0.01650049 -0.00952657  0.00000000       0.002
   0.01700051 -0.00981525  0.00000000       0.002
   0.01750052 -0.01010393  0.00000000       0.002
   0.01800054 -0.01039262  0.00000000       0.002
   0.01850055 -0.01068130  0.00000000       0.002
   0.01900057 -0.01096998  0.00000000       0.002
   0.01950058 -0.01125867  0.00000000       0.002
   0.02000060 -0.01154735  0.00000000       0.002
   0.02050061 -0.01183604  0.00000000       0.002
   0.02100063 -0.01212472  0.00000000       0.002
   0.02150064 -0.01241340  0.00000000       0.002
   0.02200066 -0.01270209  0.00000000       0.002
   0.02250067 -0.01299077  0.00000000       0.002
   0.02300069 -0.01327945  0.00000000       0.002
   0.02350070 -0.01356814  0.00000000       0.002
   0.02400072 -0.01385682  0.00000000       0.002
   0.02450073 -0.01414551  0.00000000       0.002
   0.02500075 -0.01443419  0.00000000       0.002
   0.02550076 -0.01472287  0.00000000       0.002
   0.02600078 -0.01501156  0.00000000       0.002
   0.02650079 -0.01530024  0.00000000       0.002
   0.02700081 -0.01558892  0.00000000       0.002
   0.02750082 -0.01587761  0.00000000       0.002
   0.02800084 -0.01616629  0.00000000       0.002
   0.02850085 -0.01645498  0.00000000       0.002
   0.02900087 -0.01674366  0.00000000       0.002
   0.02950088 -0.01703234  0.00000000       0.002
   0.03000090 -0.01732103  0.00000000       0.002
   0.03050091 -0.01760971  0.00000000       0.002
   0.03100093 -0.01789840  0.00000000       0.002
   0.03150094 -0.01818708  0.00000000       0.002
   0.03200096 -0.01847576  0.00000000       0.002
   0.03250097 -0.01876445  0.00000000       0.002
   0.03300099 -0.01905313  0.00000000       0.002
   0.03350100 -0.01934181  0.00000000       0.002
   0.03400102 -0.01963050  0.00000000       0.002
   0.03450103 -0.01991918  0.00000000       0.002
   0.03500105 -0.02020787  0.00000000       0.002
   0.03550106 -0.02049655  0.00000000       0.002
   0.03600108 -0.02078523  0.00000000       0.002
   0.03650109 -0.02107392  0.00000000       0.002
   0.03700111 -0.02136260  0.00000000       0.002
   0.03750112 -0.02165128  0.00000000       0.002
   0.03800114 -0.02193997  0.00000000       0.002
   0.03850115 -0.02222865  0.00000000       0.002
   0.03900117 -0.02251734  0.00000000       0.002
   0.03950118 -0.02280602  0.00000000       0.002
   0.04000120 -0.02309470  0.00000000       0.002
   0.04050121 -0.02338339  0.00000000       0.002
   0.04100123 -0.02367207  0.00000000       0.002
   0.04150124 -0.02396075  0.00000000       0.002
   0.04200126 -0.02424944  0.00000000       0.002
   0.04250127 -0.02453812  0.00000000       0.002
   0.04300129 -0.02482681  0.00000000       0.002
   0.04350130 -0.02511549  0.00000000       0.002
   0.04400132 -0.02540417  0.00000000       0.002
   0.04450133 -0.02569286  0.00000000       0.002
   0.04500135 -0.02598154  0.00000000       0.002
   0.04550136 -0.02627023  0.00000000       0.002
   0.04600138 -0.02655891  0.00000000       0.002
   0.04650139 -0.02684759  0.00000000       0.002
   0.04700141 -0.02713628  0.00000000       0.002
   0.04750142 -0.02742496  0.00000000       0.002
   0.04800144 -0.02771364  0.00000000       0.002
   0.04850145 -0.02800233  0.00000000       0.002
   0.04900147 -0.02829101  0.00000000       0.002
   0.04950148 -0.02857970  0.00000000       0.002
   0.05000150 -0.02886838  0.00000000       0.002
   0.05050151 -0.02915706  0.00000000       0.002
   0.05100153 -0.02944575  0.00000000       0.002
   0.05150154 -0.02973443  0.00000000       0.002
   0.05200156 -0.03002311  0.00000000       0.002
   0.05250157 -0.03031180  0.00000000       0.002
   0.05300159 -0.03060048  0.00000000       0.002
   0.05350160 -0.03088917  0.00000000       0.002
   0.05400162 -0.03117785  0.00000000       0.002
   0.05450163 -0.03146653  0.00000000       0.002
   0.05500165 -0.03175522  0.00000000       0.002
   0.05550166 -0.03204390  0.00000000       0.002
   0.05600168 -0.03233258  0.00000000       0.002
   0.05650169 -0.03262127  0.00000000       0.002
   0.05700171 -0.03290995  0.00000000       0.002
   0.05750172 -0.03319864  0.00000000       0.002
   0.05800174 -0.03348732  0.00000000       0.002
   0.05850175 -0.03377600  0.00000000       0.002
   0.05900177 -0.03406469  0.00000000       0.002
   0.05950178 -0.03435337  0.00000000       0.002
   0.06000180 -0.03464206  0.00000000       0.002
   0.06050181 -0.03493074  0.00000000       0.002
   0.06100183 -0.03521942  0.00000000       0.002
   0.06150184 -0.03550811  0.00000000       0.002
   0.06200186 -0.03579679  0.00000000       0.002
   0.06250187 -0.03608547  0.00000000       0.002
   0.06300189 -0.03637416  0.00000000       0.002
   0.06350190 -0.03666284  0.00000000       0.002
   0.06400192 -0.03695153  0.00000000       0.002
   0.06450193 -0.03724021  0.00000000       0.002
   0.06500195 -0.03752889  0.00000000       0.002
   0.06550196 -0.03781758  0.00000000       0.002
   0.06600198 -0.03810626  0.00000000       0.002
   0.06650199 -0.03839494  0.00000000       0.002
   0.06700201 -0.03868363  0.00000000       0.002
   0.06750202 -0.03897231  0.00000000       0.002
   0.06800204 -0.03926100  0.00000000       0.002
   0.06850205 -0.03954968  0.00000000       0.002
   0.06900207 -0.03983836  0.00000000       0.002
   0.06950208 -0.04012705  0.00000000       0.002
   0.07000210 -0.04041573  0.00000000       0.002
   0.07050211 -0.04070441  0.00000000       0.002
   0.07100213 -0.04099310  0.00000000       0.002
   0.07150214 -0.04128178  0.00000000       0.002
   0.07200216 -0.04157047  0.00000000       0.002
   0.07250217 -0.04185915  0.00000000       0.002
   0.07300219 -0.04214783  0.00000000       0.002
   0.07350220 -0.04243652  0.00000000       0.002
   0.07400222 -0.04272520  0.00000000       0.002
   0.07450223 -0.04301389  0.00000000       0.002
   0.07500225 -0.04330257  0.00000000       0.002
   0.07550226 -0.04359125  0.00000000       0.002
   0.07600228 -0.04387994  0.00000000       0.002
   0.07650229 -0.04416862  0.00000000       0.002
   0.07700231 -0.04445730  0.00000000       0.002
   0.07750232 -0.04474599  0.00000000       0.002
   0.07800234 -0.04503467  0.00000000       0.002
   0.07850235 -0.04532336  0.00000000       0.002
   0.07900237 -0.04561204  0.00000000       0.002
   0.07950238 -0.04590072  0.00000000       0.002
   0.08000240 -0.04618941  0.00000000       0.002
   0.08050241 -0.04647809  0.00000000       0.002
   0.08100243 -0.04676677  0.00000000       0.002
   0.08150244 -0.04705546  0.00000000       0.002
   0.08200246 -0.04734414  0.00000000       0.002
   0.08250247 -0.04763283  0.00000000       0.002
   0.08300249 -0.04792151  0.00000000       0.002
   0.08350250 -0.04821019  0.00000000       0.002
   0.08400252 -0.04849888  0.00000000       0.002
   0.08450253 -0.04878756  0.00000000       0.002
   0.08500255 -0.04907624  0.00000000       0.002
   0.08550256 -0.04936493  0.00000000       0.002
   0.08600258 -0.04965361  0.00000000       0.002
   0.08650259 -0.04994230  0.00000000       0.002
   0.08700261 -0.05023098  0.00000000       0.002
   0.08750262 -0.05051966  0.00000000       0.002
   0.08800264 -0.05080835  0.00000000       0.002
   0.08850265 -0.05109703  0.00000000       0.002
   0.08900267 -0.05138572  0.00000000       0.002
   0.08950268 -0.05167440  0.00000000       0.002
   0.09000270 -0.05196308  0.00000000       0.002
   0.09050271 -0.05225177  0.00000000       0.002
   0.09100273 -0.05254045  0.00000000       0.002
   0.09150274 -0.05282913  0.00000000       0.002
   0.09200276 -0.05311782  0.00000000       0.002
   0.09250277 -0.05340650  0.00000000       0.002
   0.09300279 -0.05369519  0.00000000       0.002
   0.09350280 -0.05398387  0.00000000       0.002
   0.09400282 -0.05427255  0.00000000       0.002
   0.09450283 -0.05456124  0.00000000       0.002
   0.09500285 -0.05484992  0.00000000       0.002
   0.09550286 -0.05513860  0.00000000       0.002
   0.09600288 -0.05542729  0.00000000       0.002
   0.09650289 -0.05571597  0.00000000       0.002
   0.09700291 -0.05600466  0.00000000       0.002
   0.09750292 -0.05629334  0.00000000       0.002
   0.09800294 -0.05658202  0.00000000       0.002
   0.09850295 -0.05687071  0.00000000       0.002
   0.09900297 -0.05715939  0.00000000       0.002
   0.09950298 -0.05744807  0.00000000       0.002
   0.09950298 -0.05744807  0.00000000       0.002
   0.09933631 -0.05696694  0.00000000       0.002
   0.09916964 -0.05648580  0.00000000       0.002
   0.09900297 -0.05600466  0.00000000       0.002
   0.09883630 -0.05552352  0.00000000       0.002
   0.09866962 -0.05504238  0.00000000       0.002
   0.09850295 -0.05456124  0.00000000       0.002
   0.09833628 -0.05408010  0.00000000       0.002
   0.09816961 -0.05359896  0.00000000       0.002
   0.09800294 -0.05311782  0.00000000       0.002
   0.09783626 -0.05263668  0.00000000       0.002
   0.09766959 -0.05215554  0.00000000       0.002
   0.09750292 -0.05167440  0.00000000       0.002
   0.09733625 -0.05119326  0.00000000       0.002
   0.09716958 -0.05071212  0.00000000       0.002
   0.09700290 -0.05023098  0.00000000       0.002
   0.09683623 -0.04974984  0.00000000       0.002
   0.09666956 -0.04926870  0.00000000       0.002
   0.09650289 -0.04878756  0.00000000       0.002
   0.09633622 -0.04830642  0.00000000       0.002
   0.09616954 -0.04782529  0.00000000       0.002
   0.09600287 -0.04734415  0.00000000       0.002
   0.09583620 -0.04686301  0.00000000       0.002
   0.09566953 -0.04638187  0.00000000       0.002
   0.09550286 -0.04590073  0.00000000       0.002
   0.09533618 -0.04541959  0.00000000       0.002
   0.09516951 -0.04493845  0.00000000       0.002
   0.09500284 -0.04445731  0.00000000       0.002
   0.09483617 -0.04397617  0.00000000       0.002
   0.09466950 -0.04349503  0.00000000       0.002
   0.09450282 -0.04301389  0.00000000       0.002
   0.09433615 -0.04253275  0.00000000       0.002
   0.09416948 -0.04205161  0.00000000       0.002
   0.09400281 -0.04157047  0.00000000       0.002
   0.09383614 -0.04108933  0.00000000       0.002
   0.09366946 -0.04060819  0.00000000       0.002
   0.09350279 -0.04012705  0.00000000       0.002
   0.09333612 -0.03964591  0.00000000       0.002
   0.09316945 -0.03916478  0.00000000       0.002
   0.09300278 -0.03868364  0.00000000       0.002
   0.09283610 -0.03820250  0.00000000       0.002
   0.09266943 -0.03772136  0.00000000       0.002
   0.09250276 -0.03724022  0.00000000       0.002
   0.09233609 -0.03675908  0.00000000       0.002
   0.09216942 -0.03627794  0.00000000       0.002
   0.09200274 -0.03579680  0.00000000       0.002
   0.09183607 -0.03531566  0.00000000       0.002
   0.09166940 -0.03483452  0.00000000       0.002
   0.09150273 -0.03435338  0.00000000       0.002
   0.09133606 -0.03387224  0.00000000       0.002
   0.09116938 -0.03339110  0.00000000       0.002
   0.09100271 -0.03290996  0.00000000       0.002
   0.09083604 -0.03242882  0.00000000       0.002
   0.09066937 -0.03194768  0.00000000       0.002
   0.09050270 -0.03146654  0.00000000       0.002
   0.09033602 -0.03098540  0.00000000       0.002
   0.09016935 -0.03050426  0.00000000       0.002
   0.09000268 -0.03002313  0.00000000       0.002
   0.08983601 -0.02954199  0.00000000       0.002
   0.08966934 -0.02906085  0.00000000       0.002
   0.08950266 -0.02857971  0.00000000       0.002
   0.08933599 -0.02809857  0.00000000       0.002
   0.08916932 -0.02761743  0.00000000       0.002
   0.08900265 -0.02713629  0.00000000       0.002
   0.08883598 -0.02665515  0.00000000       0.002
   0.08866930 -0.02617401  0.00000000       0.002
   0.08850263 -0.02569287  0.00000000       0.002
   0.08833596 -0.02521173  0.00000000       0.002
   0.08816929 -0.02473059  0.00000000       0.002
   0.08800262 -0.02424945  0.00000000       0.002
   0.08783594 -0.02376831  0.00000000       0.002
   0.08766927 -0.02328717  0.00000000       0.002
   0.08750260 -0.02280603  0.00000000       0.002
   0.08733593 -0.02232489  0.00000000       0.002
   0.08716926 -0.02184375  0.00000000       0.002
   0.08700258 -0.02136262  0.00000000       0.002
   0.08683591 -0.02088148  0.00000000       0.002
   0.08666924 -0.02040034  0.00000000       0.002
   0.08650257 -0.01991920  0.00000000       0.002
   0.08633590 -0.01943806  0.00000000       0.002
   0.08616922 -0.01895692  0.00000000       0.002
   0.08600255 -0.01847578  0.00000000       0.002
   0.08583588 -0.01799464  0.00000000       0.002
   0.08566921 -0.01751350  0.00000000       0.002
   0.08550254 -0.01703236  0.00000000       0.002
   0.08533586 -0.01655122  0.00000000       0.002
   0.08516919 -0.01607008  0.00000000       0.002
   0.08500252 -0.01558894  0.00000000       0.002
   0.08483585 -0.01510780  0.00000000       0.002
   0.08466918 -0.01462666  0.00000000       0.002
   0.08450250 -0.01414552  0.00000000       0.002
   0.08433583 -0.01366438  0.00000000       0.002
   0.08416916 -0.01318324  0.00000000       0.002
   0.08400249 -0.01270210  0.00000000       0.002
   0.08383582 -0.01222097  0.00000000       0.002
   0.08366914 -0.01173983  0.00000000       0.002
   0.08350247 -0.01125869  0.00000000       0.002
   0.08333580 -0.01077755  0.00000000       0.002
   0.08316913 -0.01029641  0.00000000       0.002
   0.08300246 -0.00981527  0.00000000       0.002
   0.08283578 -0.00933413  0.00000000       0.002
   0.08266911 -0.00885299  0.00000000       0.002
   0.08250244 -0.00837185  0.00000000       0.002
   0.08233577 -0.00789071  0.00000000       0.002
   0.08216910 -0.00740957  0.00000000       0.002
   0.08200242 -0.00692843  0.00000000       0.002
   0.08183575 -0.00644729  0.00000000       0.002
   0.08166908 -0.00596615  0.00000000       0.002
   0.08150241 -0.00548501  0.00000000       0.002
   0.08133574 -0.00500387  0.00000000       0.002
   0.08116906 -0.00452273  0.00000000       0.002
   0.08100239 -0.00404159  0.00000000       0.002
   0.08083572 -0.00356045  0.00000000       0.002
   0.08066905 -0.00307932  0.00000000       0.002
   0.08050238 -0.00259818  0.00000000       0.002
   0.08033570 -0.00211704  0.00000000       0.002
   0.08016903 -0.00163590  0.00000000       0.002
   0.08000236 -0.00115476  0.00000000       0.002
   0.07983569 -0.00067362  0.00000000       0.002
   0.07966902 -0.00019248  0.00000000       0.002
   0.07950234  0.00028866  0.00000000       0.002
   0.07933567  0.00076980  0.00000000       0.002
   0.07916900  0.00125094  0.00000000       0.002
   0.07900233  0.00173208  0.00000000       0.002
   0.07883566  0.00221322  0.00000000       0.002
   0.07866898  0.00269436  0.00000000       0.002
   0.07850231  0.00317550  0.00000000       0.002
   0.07833564  0.00365664  0.00000000       0.002
   0.07816897  0.00413778  0.00000000       0.002
   0.07800230  0.00461892  0.00000000       0.002
   0.07783562  0.00510006  0.00000000       0.002
   0.07766895  0.00558119  0.00000000       0.002
   0.07750228  0.00606233  0.00000000       0.002
   0.07733561  0.00654347  0.00000000       0.002
   0.07716894  0.00702461  0.00000000       0.002
   0.07700226  0.00750575  0.00000000       0.002
   0.07683559  0.00798689  0.00000000       0.002
   0.07666892  0.00846803  0.00000000       0.002
   0.07650225  0.00894917  0.00000000       0.002
   0.07633558  0.00943031  0.00000000       0.002
   0.07616890  0.00991145  0.00000000       0.002
   0.07600223  0.01039259  0.00000000       0.002
   0.07583556  0.01087373  0.00000000       0.002
   0.07566889  0.01135487  0.00000000       0.002
   0.07550222  0.01183601  0.00000000       0.002
   0.07533554  0.01231715  0.00000000       0.002
   0.07516887  0.01279829  0.00000000       0.002
   0.07500220  0.01327943  0.00000000       0.002
   0.07483553  0.01376057  0.00000000       0.002
   0.07466886  0.01424171  0.00000000       0.002
   0.07450218  0.01472284  0.00000000       0.002
   0.07433551  0.01520398  0.00000000       0.002
   0.07416884  0.01568512  0.00000000       0.002
   0.07400217  0.01616626  0.00000000       0.002
   0.07383550  0.01664740  0.00000000       0.002
   0.07366882  0.01712854  0.00000000       0.002
   0.07350215  0.01760968  0.00000000       0.002
   0.07333548  0.01809082  0.00000000       0.002
   0.07316881  0.01857196  0.00000000       0.002
   0.07300214  0.01905310  0.00000000       0.002
   0.07283546  0.01953424  0.00000000       0.002
   0.07266879  0.02001538  0.00000000       0.002
   0.07250212  0.02049652  0.00000000       0.002
   0.07233545  0.02097766  0.00000000       0.002
   0.07216878  0.02145880  0.00000000       0.002
   0.07200210  0.02193994  0.00000000       0.002
   0.07183543  0.02242108  0.00000000       0.002
   0.07166876  0.02290222  0.00000000       0.002
   0.07150209  0.02338335  0.00000000       0.002
   0.07133542  0.02386449  0.00000000       0.002
   0.07116874  0.02434563  0.00000000       0.002
   0.07100207  0.02482677  0.00000000       0.002
   0.07083540  0.02530791  0.00000000       0.002
   0.07066873  0.02578905  0.00000000       0.002
   0.07050206  0.02627019  0.00000000       0.002
   0.07033538  0.02675133  0.00000000       0.002
   0.07016871  0.02723247  0.00000000       0.002
   0.07000204  0.02771361  0.00000000       0.002
   0.06983537  0.02819475  0.00000000       0.002
   0.06966870  0.02867589  0.00000000       0.002
   0.06950202  0.02915703  0.00000000       0.002
   0.06933535  0.02963817  0.00000000       0.002
   0.06916868  0.03011931  0.00000000       0.002
   0.06900201  0.03060045  0.00000000       0.002
   0.06883534  0.03108159  0.00000000       0.002
   0.06866866  0.03156273  0.00000000       0.002
   0.06850199  0.03204387  0.00000000       0.002
   0.06833532  0.03252500  0.00000000       0.002
   0.06816865  0.03300614  0.00000000       0.002
   0.06800198  0.03348728  0.00000000       0.002
   0.06783530  0.03396842  0.00000000       0.002
   0.06766863  0.03444956  0.00000000       0.002
   0.06750196  0.03493070  0.00000000       0.002
   0.06733529  0.03541184  0.00000000       0.002
   0.06716862  0.03589298  0.00000000       0.002
   0.06700194  0.03637412  0.00000000       0.002
   0.06683527  0.03685526  0.00000000       0.002
   0.06666860  0.03733640  0.00000000       0.002
   0.06650193  0.03781754  0.00000000       0.002
   0.06633526  0.03829868  0.00000000       0.002
   0.06633526  0.03829868  0.00000000       0.002
   0.06600191  0.03810622  0.00000000       0.002
   0.06566857  0.03791377  0.00000000       0.002
   0.06533523  0.03772131  0.00000000       0.002
   0.06500188  0.03752886  0.00000000       0.002
   0.06466854  0.03733640  0.00000000       0.002
   0.06433520  0.03714394  0.00000000       0.002
   0.06400186  0.03695149  0.00000000       0.002
   0.06366851  0.03675903  0.00000000       0.002
   0.06333517  0.03656658  0.00000000       0.002
   0.06300183  0.03637412  0.00000000       0.002
   0.06266848  0.03618167  0.00000000       0.002
   0.06233514  0.03598921  0.00000000       0.002
   0.06200180  0.03579675  0.00000000       0.002
   0.06166845  0.03560430  0.00000000       0.002
   0.06133511  0.03541184  0.00000000       0.002
   0.06100177  0.03521939  0.00000000       0.002
   0.06066843  0.03502693  0.00000000       0.002
   0.06033508  0.03483448  0.00000000       0.002
   0.06000174  0.03464202  0.00000000       0.002
   0.05966840  0.03444956  0.00000000       0.002
   0.05933505  0.03425711  0.00000000       0.002
   0.05900171  0.03406465  0.00000000       0.002
   0.05866837  0.03387220  0.00000000       0.002
   0.05833502  0.03367974  0.00000000       0.002
   0.05800168  0.03348729  0.00000000       0.002
   0.05766834  0.03329483  0.00000000       0.002
   0.05733500  0.03310238  0.00000000       0.002
   0.05700165  0.03290992  0.00000000       0.002
   0.05666831  0.03271746  0.00000000       0.002
   0.05633497  0.03252501  0.00000000       0.002
   0.05600162  0.03233255  0.00000000       0.002
   0.05566828  0.03214010  0.00000000       0.002
   0.05533494  0.03194764  0.00000000       0.002
   0.05500159  0.03175519  0.00000000       0.002
   0.05466825  0.03156273  0.00000000       0.002
   0.05433491  0.03137027  0.00000000       0.002
   0.05400157  0.03117782  0.00000000       0.002
   0.05366822  0.03098536  0.00000000       0.002
   0.05333488  0.03079291  0.00000000       0.002
   0.05300154  0.03060045  0.00000000       0.002
   0.05266819  0.03040800  0.00000000       0.002
   0.05233485  0.03021554  0.00000000       0.002
   0.05200151  0.03002308  0.00000000       0.002
   0.05166816  0.02983063  0.00000000       0.002
   0.05133482  0.02963817  0.00000000       0.002
   0.05100148  0.02944572  0.00000000       0.002
   0.05066814  0.02925326  0.00000000       0.002
   0.05033479  0.02906081  0.00000000       0.002
   0.05000145  0.02886835  0.00000000       0.002
   0.04966811  0.02867589  0.00000000       0.002
   0.04933476  0.02848344  0.00000000       0.002
   0.04900142  0.02829098  0.00000000       0.002
   0.04866808  0.02809853  0.00000000       0.002
   0.04833473  0.02790607  0.00000000       0.002
   0.04800139  0.02771362  0.00000000       0.002
   0.04766805  0.02752116  0.00000000       0.002
   0.04733471  0.02732871  0.00000000       0.002
   0.04700136  0.02713625  0.00000000       0.002
   0.04666802  0.02694379  0.00000000       0.002
   0.04633468  0.02675134  0.00000000       0.002
   0.04600133  0.02655888  0.00000000       0.002
   0.04566799  0.02636643  0.00000000       0.002
   0.04533465  0.02617397  0.00000000       0.002
   0.04500130  0.02598152  0.00000000       0.002
   0.04466796  0.02578906  0.00000000       0.002
   0.04433462  0.02559660  0.00000000       0.002
   0.04400128  0.02540415  0.00000000       0.002
   0.04366793  0.02521169  0.00000000       0.002
   0.04333459  0.02501924  0.00000000       0.002
   0.04300125  0.02482678  0.00000000       0.002
   0.04266790  0.02463433  0.00000000       0.002
   0.04233456  0.02444187  0.00000000       0.002
   0.04200122  0.02424941  0.00000000       0.002
   0.04166787  0.02405696  0.00000000       0.002
   0.04133453  0.02386450  0.00000000       0.002
   0.04100119  0.02367205  0.00000000       0.002
   0.04066785  0.02347959  0.00000000       0.002
   0.04033450  0.02328714  0.00000000       0.002
   0.04000116  0.02309468  0.00000000       0.002
   0.03966782  0.02290222  0.00000000       0.002
   0.03933447  0.02270977  0.00000000       0.002
   0.03900113  0.02251731  0.00000000       0.002
   0.03866779  0.02232486  0.00000000       0.002
   0.03833444  0.02213240  0.00000000       0.002
   0.03800110  0.02193995  0.00000000       0.002
   0.03766776  0.02174749  0.00000000       0.002
   0.03733442  0.02155503  0.00000000       0.002
   0.03700107  0.02136258  0.00000000       0.002
   0.03666773  0.02117012  0.00000000       0.002
   0.03633439  0.02097767  0.00000000       0.002
   0.03600104  0.02078521  0.00000000       0.002
   0.03566770  0.02059276  0.00000000       0.002
   0.03533436  0.02040030  0.00000000       0.002
   0.03500101  0.02020785  0.00000000       0.002
   0.03466767  0.02001539  0.00000000       0.002
   0.03433433  0.01982293  0.00000000       0.002
   0.03400099  0.01963048  0.00000000       0.002
   0.03366764  0.01943802  0.00000000       0.002
   0.03333430  0.01924557  0.00000000       0.002
   0.03300096  0.01905311  0.00000000       0.002
   0.03266761  0.01886066  0.00000000       0.002
   0.03233427  0.01866820  0.00000000       0.002
   0.03200093  0.01847574  0.00000000       0.002
   0.03166758  0.01828329  0.00000000       0.002
   0.03133424  0.01809083  0.00000000       0.002
   0.03100090  0.01789838  0.00000000       0.002
   0.03066756  0.01770592  0.00000000       0.002
   0.03033421  0.01751347  0.00000000       0.002
   0.03000087  0.01732101  0.00000000       0.002
   0.02966753  0.01712855  0.00000000       0.002
   0.02933418  0.01693610  0.00000000       0.002
   0.02900084  0.01674364  0.00000000       0.002
   0.02866750  0.01655119  0.00000000       0.002
   0.02833415  0.01635873  0.00000000       0.002
   0.02800081  0.01616628  0.00000000       0.002
   0.02766747  0.01597382  0.00000000       0.002
   0.02733413  0.01578136  0.00000000       0.002
   0.02700078  0.01558891  0.00000000       0.002
   0.02666744  0.01539645  0.00000000       0.002
   0.02633410  0.01520400  0.00000000       0.002
   0.02600075  0.01501154  0.00000000       0.002
   0.02566741  0.01481909  0.00000000       0.002
   0.02533407  0.01462663  0.00000000       0.002
   0.02500072  0.01443418  0.00000000       0.002
   0.02466738  0.01424172  0.00000000       0.002
   0.02433404  0.01404926  0.00000000       0.002
   0.02400070  0.01385681  0.00000000       0.002
   0.02366735  0.01366435  0.00000000       0.002
   0.02333401  0.01347190  0.00000000       0.002
   0.02300067  0.01327944  0.00000000       0.002
   0.02266732  0.01308699  0.00000000       0.002
   0.02233398  0.01289453  0.00000000       0.002
   0.02200064  0.01270207  0.00000000       0.002
   0.02166729  0.01250962  0.00000000       0.002
   0.02133395  0.01231716  0.00000000       0.002
   0.02100061  0.01212471  0.00000000       0.002
   0.02066727  0.01193225  0.00000000       0.002
   0.02033392  0.01173980  0.00000000       0.002
   0.02000058  0.01154734  0.00000000       0.002
   0.01966724  0.01135488  0.00000000       0.002
   0.01933389  0.01116243  0.00000000       0.002
   0.01900055  0.01096997  0.00000000       0.002
   0.01866721  0.01077752  0.00000000       0.002
   0.01833386  0.01058506  0.00000000       0.002
   0.01800052  0.01039261  0.00000000       0.002
   0.01766718  0.01020015  0.00000000       0.002
   0.01733384  0.01000769  0.00000000       0.002
   0.01700049  0.00981524  0.00000000       0.002
   0.01666715  0.00962278  0.00000000       0.002
   0.01633381  0.00943033  0.00000000       0.002
   0.01600046  0.00923787  0.00000000       0.002
   0.01566712  0.00904542  0.00000000       0.002
   0.01533378  0.00885296  0.00000000       0.002
   0.01500043  0.00866051  0.00000000       0.002
   0.01466709  0.00846805  0.00000000       0.002
   0.01433375  0.00827559  0.00000000       0.002
   0.01400041  0.00808314  0.00000000       0.002
   0.01366706  0.00789068  0.00000000       0.002
   0.01333372  0.00769823  0.00000000       0.002
   0.01300038  0.00750577  0.00000000       0.002
   0.01266703  0.00731332  0.00000000       0.002
   0.01233369  0.00712086  0.00000000       0.002
   0.01200035  0.00692840  0.00000000       0.002
   0.01166700  0.00673595  0.00000000       0.002
   0.01133366  0.00654349  0.00000000       0.002
   0.01100032  0.00635104  0.00000000       0.002
   0.01066698  0.00615858  0.00000000       0.002
   0.01033363  0.00596613  0.00000000       0.002
   0.01000029  0.00577367  0.00000000       0.002
   0.00966695  0.00558121  0.00000000       0.002
   0.00933360  0.00538876  0.00000000       0.002
   0.00900026  0.00519630  0.00000000       0.002
   0.00866692  0.00500385  0.00000000       0.002
   0.00833357  0.00481139  0.00000000       0.002
   0.00800023  0.00461894  0.00000000       0.002
   0.00766689  0.00442648  0.00000000       0.002
   0.00733355  0.00423402  0.00000000       0.002
   0.00700020  0.00404157  0.00000000       0.002
   0.00666686  0.00384911  0.00000000       0.002
   0.00633352  0.00365666  0.00000000       0.002
   0.00600017  0.00346420  0.00000000       0.002
   0.00566683  0.00327175  0.00000000       0.002
   0.00533349  0.00307929  0.00000000       0.002
   0.00500014  0.00288684  0.00000000       0.002
   0.00466680  0.00269438  0.00000000       0.002
   0.00433346  0.00250192  0.00000000       0.002
   0.00400012  0.00230947  0.00000000       0.002
   0.00366677  0.00211701  0.00000000       0.002
   0.00333343  0.00192456  0.00000000       0.002
   0.00300009  0.00173210  0.00000000       0.002
   0.00266674  0.00153965  0.00000000       0.002
   0.00233340  0.00134719  0.00000000       0.002
   0.00200006  0.00115473  0.00000000       0.002
   0.00166671  0.00096228  0.00000000       0.002
   0.00133337  0.00076982  0.00000000       0.002
   0.00100003  0.00057737  0.00000000       0.002
   0.00066669  0.00038491  0.00000000       0.002
   0.00033334  0.00019246  0.00000000       0.002
   0.00000000  0.00000000  0.00000000       0.002
 
 k-points in reciprocal lattice and weights: long high symmetry lines for hexagonal s
   0.00000000  0.00000000  0.00000000       0.002
   0.00251256  0.00000000  0.00000000       0.002
   0.00502513  0.00000000  0.00000000       0.002
   0.00753769  0.00000000  0.00000000       0.002
   0.01005025  0.00000000  0.00000000       0.002
   0.01256281  0.00000000  0.00000000       0.002
   0.01507538  0.00000000  0.00000000       0.002
   0.01758794  0.00000000  0.00000000       0.002
   0.02010050  0.00000000  0.00000000       0.002
   0.02261307  0.00000000  0.00000000       0.002
   0.02512563  0.00000000  0.00000000       0.002
   0.02763819  0.00000000  0.00000000       0.002
   0.03015075  0.00000000  0.00000000       0.002
   0.03266332  0.00000000  0.00000000       0.002
   0.03517588  0.00000000  0.00000000       0.002
   0.03768844  0.00000000  0.00000000       0.002
   0.04020101  0.00000000  0.00000000       0.002
   0.04271357  0.00000000  0.00000000       0.002
   0.04522613  0.00000000  0.00000000       0.002
   0.04773869  0.00000000  0.00000000       0.002
   0.05025126  0.00000000  0.00000000       0.002
   0.05276382  0.00000000  0.00000000       0.002
   0.05527638  0.00000000  0.00000000       0.002
   0.05778894  0.00000000  0.00000000       0.002
   0.06030151  0.00000000  0.00000000       0.002
   0.06281407  0.00000000  0.00000000       0.002
   0.06532663  0.00000000  0.00000000       0.002
   0.06783920  0.00000000  0.00000000       0.002
   0.07035176  0.00000000  0.00000000       0.002
   0.07286432  0.00000000  0.00000000       0.002
   0.07537688  0.00000000  0.00000000       0.002
   0.07788945  0.00000000  0.00000000       0.002
   0.08040201  0.00000000  0.00000000       0.002
   0.08291457  0.00000000  0.00000000       0.002
   0.08542714  0.00000000  0.00000000       0.002
   0.08793970  0.00000000  0.00000000       0.002
   0.09045226  0.00000000  0.00000000       0.002
   0.09296482  0.00000000  0.00000000       0.002
   0.09547739  0.00000000  0.00000000       0.002
   0.09798995  0.00000000  0.00000000       0.002
   0.10050251  0.00000000  0.00000000       0.002
   0.10301508  0.00000000  0.00000000       0.002
   0.10552764  0.00000000  0.00000000       0.002
   0.10804020  0.00000000  0.00000000       0.002
   0.11055276  0.00000000  0.00000000       0.002
   0.11306533  0.00000000  0.00000000       0.002
   0.11557789  0.00000000  0.00000000       0.002
   0.11809045  0.00000000  0.00000000       0.002
   0.12060302  0.00000000  0.00000000       0.002
   0.12311558  0.00000000  0.00000000       0.002
   0.12562814  0.00000000  0.00000000       0.002
   0.12814070  0.00000000  0.00000000       0.002
   0.13065327  0.00000000  0.00000000       0.002
   0.13316583  0.00000000  0.00000000       0.002
   0.13567839  0.00000000  0.00000000       0.002
   0.13819095  0.00000000  0.00000000       0.002
   0.14070352  0.00000000  0.00000000       0.002
   0.14321608  0.00000000  0.00000000       0.002
   0.14572864  0.00000000  0.00000000       0.002
   0.14824121  0.00000000  0.00000000       0.002
   0.15075377  0.00000000  0.00000000       0.002
   0.15326633  0.00000000  0.00000000       0.002
   0.15577889  0.00000000  0.00000000       0.002
   0.15829146  0.00000000  0.00000000       0.002
   0.16080402  0.00000000  0.00000000       0.002
   0.16331658  0.00000000  0.00000000       0.002
   0.16582915  0.00000000  0.00000000       0.002
   0.16834171  0.00000000  0.00000000       0.002
   0.17085427  0.00000000  0.00000000       0.002
   0.17336683  0.00000000  0.00000000       0.002
   0.17587940  0.00000000  0.00000000       0.002
   0.17839196  0.00000000  0.00000000       0.002
   0.18090452  0.00000000  0.00000000       0.002
   0.18341709  0.00000000  0.00000000       0.002
   0.18592965  0.00000000  0.00000000       0.002
   0.18844221  0.00000000  0.00000000       0.002
   0.19095477  0.00000000  0.00000000       0.002
   0.19346734  0.00000000  0.00000000       0.002
   0.19597990  0.00000000  0.00000000       0.002
   0.19849246  0.00000000  0.00000000       0.002
   0.20100503  0.00000000  0.00000000       0.002
   0.20351759  0.00000000  0.00000000       0.002
   0.20603015  0.00000000  0.00000000       0.002
   0.20854271  0.00000000  0.00000000       0.002
   0.21105528  0.00000000  0.00000000       0.002
   0.21356784  0.00000000  0.00000000       0.002
   0.21608040  0.00000000  0.00000000       0.002
   0.21859296  0.00000000  0.00000000       0.002
   0.22110553  0.00000000  0.00000000       0.002
   0.22361809  0.00000000  0.00000000       0.002
   0.22613065  0.00000000  0.00000000       0.002
   0.22864322  0.00000000  0.00000000       0.002
   0.23115578  0.00000000  0.00000000       0.002
   0.23366834  0.00000000  0.00000000       0.002
   0.23618090  0.00000000  0.00000000       0.002
   0.23869347  0.00000000  0.00000000       0.002
   0.24120603  0.00000000  0.00000000       0.002
   0.24371859  0.00000000  0.00000000       0.002
   0.24623116  0.00000000  0.00000000       0.002
   0.24874372  0.00000000  0.00000000       0.002
   0.25125628  0.00000000  0.00000000       0.002
   0.25376884  0.00000000  0.00000000       0.002
   0.25628141  0.00000000  0.00000000       0.002
   0.25879397  0.00000000  0.00000000       0.002
   0.26130653  0.00000000  0.00000000       0.002
   0.26381910  0.00000000  0.00000000       0.002
   0.26633166  0.00000000  0.00000000       0.002
   0.26884422  0.00000000  0.00000000       0.002
   0.27135678  0.00000000  0.00000000       0.002
   0.27386935  0.00000000  0.00000000       0.002
   0.27638191  0.00000000  0.00000000       0.002
   0.27889447  0.00000000  0.00000000       0.002
   0.28140704  0.00000000  0.00000000       0.002
   0.28391960  0.00000000  0.00000000       0.002
   0.28643216  0.00000000  0.00000000       0.002
   0.28894472  0.00000000  0.00000000       0.002
   0.29145729  0.00000000  0.00000000       0.002
   0.29396985  0.00000000  0.00000000       0.002
   0.29648241  0.00000000  0.00000000       0.002
   0.29899497  0.00000000  0.00000000       0.002
   0.30150754  0.00000000  0.00000000       0.002
   0.30402010  0.00000000  0.00000000       0.002
   0.30653266  0.00000000  0.00000000       0.002
   0.30904523  0.00000000  0.00000000       0.002
   0.31155779  0.00000000  0.00000000       0.002
   0.31407035  0.00000000  0.00000000       0.002
   0.31658291  0.00000000  0.00000000       0.002
   0.31909548  0.00000000  0.00000000       0.002
   0.32160804  0.00000000  0.00000000       0.002
   0.32412060  0.00000000  0.00000000       0.002
   0.32663317  0.00000000  0.00000000       0.002
   0.32914573  0.00000000  0.00000000       0.002
   0.33165829  0.00000000  0.00000000       0.002
   0.33417085  0.00000000  0.00000000       0.002
   0.33668342  0.00000000  0.00000000       0.002
   0.33919598  0.00000000  0.00000000       0.002
   0.34170854  0.00000000  0.00000000       0.002
   0.34422111  0.00000000  0.00000000       0.002
   0.34673367  0.00000000  0.00000000       0.002
   0.34924623  0.00000000  0.00000000       0.002
   0.35175879  0.00000000  0.00000000       0.002
   0.35427136  0.00000000  0.00000000       0.002
   0.35678392  0.00000000  0.00000000       0.002
   0.35929648  0.00000000  0.00000000       0.002
   0.36180905  0.00000000  0.00000000       0.002
   0.36432161  0.00000000  0.00000000       0.002
   0.36683417  0.00000000  0.00000000       0.002
   0.36934673  0.00000000  0.00000000       0.002
   0.37185930  0.00000000  0.00000000       0.002
   0.37437186  0.00000000  0.00000000       0.002
   0.37688442  0.00000000  0.00000000       0.002
   0.37939698  0.00000000  0.00000000       0.002
   0.38190955  0.00000000  0.00000000       0.002
   0.38442211  0.00000000  0.00000000       0.002
   0.38693467  0.00000000  0.00000000       0.002
   0.38944724  0.00000000  0.00000000       0.002
   0.39195980  0.00000000  0.00000000       0.002
   0.39447236  0.00000000  0.00000000       0.002
   0.39698492  0.00000000  0.00000000       0.002
   0.39949749  0.00000000  0.00000000       0.002
   0.40201005  0.00000000  0.00000000       0.002
   0.40452261  0.00000000  0.00000000       0.002
   0.40703518  0.00000000  0.00000000       0.002
   0.40954774  0.00000000  0.00000000       0.002
   0.41206030  0.00000000  0.00000000       0.002
   0.41457286  0.00000000  0.00000000       0.002
   0.41708543  0.00000000  0.00000000       0.002
   0.41959799  0.00000000  0.00000000       0.002
   0.42211055  0.00000000  0.00000000       0.002
   0.42462312  0.00000000  0.00000000       0.002
   0.42713568  0.00000000  0.00000000       0.002
   0.42964824  0.00000000  0.00000000       0.002
   0.43216080  0.00000000  0.00000000       0.002
   0.43467337  0.00000000  0.00000000       0.002
   0.43718593  0.00000000  0.00000000       0.002
   0.43969849  0.00000000  0.00000000       0.002
   0.44221106  0.00000000  0.00000000       0.002
   0.44472362  0.00000000  0.00000000       0.002
   0.44723618  0.00000000  0.00000000       0.002
   0.44974874  0.00000000  0.00000000       0.002
   0.45226131  0.00000000  0.00000000       0.002
   0.45477387  0.00000000  0.00000000       0.002
   0.45728643  0.00000000  0.00000000       0.002
   0.45979899  0.00000000  0.00000000       0.002
   0.46231156  0.00000000  0.00000000       0.002
   0.46482412  0.00000000  0.00000000       0.002
   0.46733668  0.00000000  0.00000000       0.002
   0.46984925  0.00000000  0.00000000       0.002
   0.47236181  0.00000000  0.00000000       0.002
   0.47487437  0.00000000  0.00000000       0.002
   0.47738693  0.00000000  0.00000000       0.002
   0.47989950  0.00000000  0.00000000       0.002
   0.48241206  0.00000000  0.00000000       0.002
   0.48492462  0.00000000  0.00000000       0.002
   0.48743719  0.00000000  0.00000000       0.002
   0.48994975  0.00000000  0.00000000       0.002
   0.49246231  0.00000000  0.00000000       0.002
   0.49497487  0.00000000  0.00000000       0.002
   0.49748744  0.00000000  0.00000000       0.002
   0.50000000  0.00000000  0.00000000       0.002
   0.50000000  0.00000000  0.00000000       0.002
   0.49916248  0.00167504  0.00000000       0.002
   0.49832495  0.00335008  0.00000000       0.002
   0.49748743  0.00502512  0.00000000       0.002
   0.49664991  0.00670016  0.00000000       0.002
   0.49581239  0.00837520  0.00000000       0.002
   0.49497486  0.01005024  0.00000000       0.002
   0.49413734  0.01172528  0.00000000       0.002
   0.49329982  0.01340032  0.00000000       0.002
   0.49246230  0.01507536  0.00000000       0.002
   0.49162477  0.01675040  0.00000000       0.002
   0.49078725  0.01842544  0.00000000       0.002
   0.48994973  0.02010048  0.00000000       0.002
   0.48911221  0.02177552  0.00000000       0.002
   0.48827468  0.02345056  0.00000000       0.002
   0.48743716  0.02512560  0.00000000       0.002
   0.48659964  0.02680064  0.00000000       0.002
   0.48576212  0.02847568  0.00000000       0.002
   0.48492459  0.03015072  0.00000000       0.002
   0.48408707  0.03182576  0.00000000       0.002
   0.48324955  0.03350080  0.00000000       0.002
   0.48241203  0.03517584  0.00000000       0.002
   0.48157450  0.03685088  0.00000000       0.002
   0.48073698  0.03852592  0.00000000       0.002
   0.47989946  0.04020096  0.00000000       0.002
   0.47906193  0.04187601  0.00000000       0.002
   0.47822441  0.04355105  0.00000000       0.002
   0.47738689  0.04522609  0.00000000       0.002
   0.47654937  0.04690113  0.00000000       0.002
   0.47571184  0.04857617  0.00000000       0.002
   0.47487432  0.05025121  0.00000000       0.002
   0.47403680  0.05192625  0.00000000       0.002
   0.47319928  0.05360129  0.00000000       0.002
   0.47236175  0.05527633  0.00000000       0.002
   0.47152423  0.05695137  0.00000000       0.002
   0.47068671  0.05862641  0.00000000       0.002
   0.46984919  0.06030145  0.00000000       0.002
   0.46901166  0.06197649  0.00000000       0.002
   0.46817414  0.06365153  0.00000000       0.002
   0.46733662  0.06532657  0.00000000       0.002
   0.46649910  0.06700161  0.00000000       0.002
   0.46566157  0.06867665  0.00000000       0.002
   0.46482405  0.07035169  0.00000000       0.002
   0.46398653  0.07202673  0.00000000       0.002
   0.46314901  0.07370177  0.00000000       0.002
   0.46231148  0.07537681  0.00000000       0.002
   0.46147396  0.07705185  0.00000000       0.002
   0.46063644  0.07872689  0.00000000       0.002
   0.45979891  0.08040193  0.00000000       0.002
   0.45896139  0.08207697  0.00000000       0.002
   0.45812387  0.08375201  0.00000000       0.002
   0.45728635  0.08542705  0.00000000       0.002
   0.45644882  0.08710209  0.00000000       0.002
   0.45561130  0.08877713  0.00000000       0.002
   0.45477378  0.09045217  0.00000000       0.002
   0.45393626  0.09212721  0.00000000       0.002
   0.45309873  0.09380225  0.00000000       0.002
   0.45226121  0.09547729  0.00000000       0.002
   0.45142369  0.09715233  0.00000000       0.002
   0.45058617  0.09882737  0.00000000       0.002
   0.44974864  0.10050241  0.00000000       0.002
   0.44891112  0.10217745  0.00000000       0.002
   0.44807360  0.10385249  0.00000000       0.002
   0.44723608  0.10552753  0.00000000       0.002
   0.44639855  0.10720257  0.00000000       0.002
   0.44556103  0.10887761  0.00000000       0.002
   0.44472351  0.11055265  0.00000000       0.002
   0.44388598  0.11222769  0.00000000       0.002
   0.44304846  0.11390273  0.00000000       0.002
   0.44221094  0.11557777  0.00000000       0.002
   0.44137342  0.11725281  0.00000000       0.002
   0.44053589  0.11892785  0.00000000       0.002
   0.43969837  0.12060289  0.00000000       0.002
   0.43886085  0.12227793  0.00000000       0.002
   0.43802333  0.12395297  0.00000000       0.002
   0.43718580  0.12562802  0.00000000       0.002
   0.43634828  0.12730306  0.00000000       0.002
   0.43551076  0.12897810  0.00000000       0.002
   0.43467324  0.13065314  0.00000000       0.002
   0.43383571  0.13232818  0.00000000       0.002
   0.43299819  0.13400322  0.00000000       0.002
   0.43216067  0.13567826  0.00000000       0.002
   0.43132315  0.13735330  0.00000000       0.002
   0.43048562  0.13902834  0.00000000       0.002
   0.42964810  0.14070338  0.00000000       0.002
   0.42881058  0.14237842  0.00000000       0.002
   0.42797306  0.14405346  0.00000000       0.002
   0.42713553  0.14572850  0.00000000       0.002
   0.42629801  0.14740354  0.00000000       0.002
   0.42546049  0.14907858  0.00000000       0.002
   0.42462296  0.15075362  0.00000000       0.002
   0.42378544  0.15242866  0.00000000       0.002
   0.42294792  0.15410370  0.00000000       0.002
   0.42211040  0.15577874  0.00000000       0.002
   0.42127287  0.15745378  0.00000000       0.002
   0.42043535  0.15912882  0.00000000       0.002
   0.41959783  0.16080386  0.00000000       0.002
   0.41876031  0.16247890  0.00000000       0.002
   0.41792278  0.16415394  0.00000000       0.002
   0.41708526  0.16582898  0.00000000       0.002
   0.41624774  0.16750402  0.00000000       0.002
   0.41541022  0.16917906  0.00000000       0.002
   0.41457269  0.17085410  0.00000000       0.002
   0.41373517  0.17252914  0.00000000       0.002
   0.41289765  0.17420418  0.00000000       0.002
   0.41206013  0.17587922  0.00000000       0.002
   0.41122260  0.17755426  0.00000000       0.002
   0.41038508  0.17922930  0.00000000       0.002
   0.40954756  0.18090434  0.00000000       0.002
   0.40871004  0.18257938  0.00000000       0.002
   0.40787251  0.18425442  0.00000000       0.002
   0.40703499  0.18592946  0.00000000       0.002
   0.40619747  0.18760450  0.00000000       0.002
   0.40535994  0.18927954  0.00000000       0.002
   0.40452242  0.19095458  0.00000000       0.002
   0.40368490  0.19262962  0.00000000       0.002
   0.40284738  0.19430466  0.00000000       0.002
   0.40200985  0.19597970  0.00000000       0.002
   0.40117233  0.19765474  0.00000000       0.002
   0.40033481  0.19932978  0.00000000       0.002
   0.39949729  0.20100482  0.00000000       0.002
   0.39865976  0.20267986  0.00000000       0.002
   0.39782224  0.20435490  0.00000000       0.002
   0.39698472  0.20602994  0.00000000       0.002
   0.39614720  0.20770498  0.00000000       0.002
   0.39530967  0.20938003  0.00000000       0.002
   0.39447215  0.21105507  0.00000000       0.002
   0.39363463  0.21273011  0.00000000       0.002
   0.39279711  0.21440515  0.00000000       0.002
   0.39195958  0.21608019  0.00000000       0.002
   0.39112206  0.21775523  0.00000000       0.002
   0.39028454  0.21943027  0.00000000       0.002
   0.38944702  0.22110531  0.00000000       0.002
   0.38860949  0.22278035  0.00000000       0.002
   0.38777197  0.22445539  0.00000000       0.002
   0.38693445  0.22613043  0.00000000       0.002
   0.38609692  0.22780547  0.00000000       0.002
   0.38525940  0.22948051  0.00000000       0.002
   0.38442188  0.23115555  0.00000000       0.002
   0.38358436  0.23283059  0.00000000       0.002
   0.38274683  0.23450563  0.00000000       0.002
   0.38190931  0.23618067  0.00000000       0.002
   0.38107179  0.23785571  0.00000000       0.002
   0.38023427  0.23953075  0.00000000       0.002
   0.37939674  0.24120579  0.00000000       0.002
   0.37855922  0.24288083  0.00000000       0.002
   0.37772170  0.24455587  0.00000000       0.002
   0.37688418  0.24623091  0.00000000       0.002
   0.37604665  0.24790595  0.00000000       0.002
   0.37520913  0.24958099  0.00000000       0.002
   0.37437161  0.25125603  0.00000000       0.002
   0.37353409  0.25293107  0.00000000       0.002
   0.37269656  0.25460611  0.00000000       0.002
   0.37185904  0.25628115  0.00000000       0.002
   0.37102152  0.25795619  0.00000000       0.002
   0.37018399  0.25963123  0.00000000       0.002
   0.36934647  0.26130627  0.00000000       0.002
   0.36850895  0.26298131  0.00000000       0.002
   0.36767143  0.26465635  0.00000000       0.002
   0.36683390  0.26633139  0.00000000       0.002
   0.36599638  0.26800643  0.00000000       0.002
   0.36515886  0.26968147  0.00000000       0.002
   0.36432134  0.27135651  0.00000000       0.002
   0.36348381  0.27303155  0.00000000       0.002
   0.36264629  0.27470659  0.00000000       0.002
   0.36180877  0.27638163  0.00000000       0.002
   0.36097125  0.27805667  0.00000000       0.002
   0.36013372  0.27973171  0.00000000       0.002
   0.35929620  0.28140675  0.00000000       0.002
   0.35845868  0.28308179  0.00000000       0.002
   0.35762116  0.28475683  0.00000000       0.002
   0.35678363  0.28643187  0.00000000       0.002
   0.35594611  0.28810691  0.00000000       0.002
   0.35510859  0.28978195  0.00000000       0.002
   0.35427107  0.29145699  0.00000000       0.002
   0.35343354  0.29313204  0.00000000       0.002
   0.35259602  0.29480708  0.00000000       0.002
   0.35175850  0.29648212  0.00000000       0.002
   0.35092097  0.29815716  0.00000000       0.002
   0.35008345  0.29983220  0.00000000       0.002
   0.34924593  0.30150724  0.00000000       0.002
   0.34840841  0.30318228  0.00000000       0.002
   0.34757088  0.30485732  0.00000000       0.002
   0.34673336  0.30653236  0.00000000       0.002
   0.34589584  0.30820740  0.00000000       0.002
   0.34505832  0.30988244  0.00000000       0.002
   0.34422079  0.31155748  0.00000000       0.002
   0.34338327  0.31323252  0.00000000       0.002
   0.34254575  0.31490756  0.00000000       0.002
   0.34170823  0.31658260  0.00000000       0.002
   0.34087070  0.31825764  0.00000000       0.002
   0.34003318  0.31993268  0.00000000       0.002
   0.33919566  0.32160772  0.00000000       0.002
   0.33835814  0.32328276  0.00000000       0.002
   0.33752061  0.32495780  0.00000000       0.002
   0.33668309  0.32663284  0.00000000       0.002
   0.33584557  0.32830788  0.00000000       0.002
   0.33500805  0.32998292  0.00000000       0.002
   0.33417052  0.33165796  0.00000000       0.002
   0.33333300  0.33333300  0.00000000       0.002
   0.33333300  0.33333300  0.00000000       0.002
   0.33165796  0.33165796  0.00000000       0.002
   0.32998292  0.32998292  0.00000000       0.002
   0.32830788  0.32830788  0.00000000       0.002
   0.32663284  0.32663284  0.00000000       0.002
   0.32495780  0.32495780  0.00000000       0.002
   0.32328276  0.32328276  0.00000000       0.002
   0.32160772  0.32160772  0.00000000       0.002
   0.31993268  0.31993268  0.00000000       0.002
   0.31825764  0.31825764  0.00000000       0.002
   0.31658260  0.31658260  0.00000000       0.002
   0.31490756  0.31490756  0.00000000       0.002
   0.31323252  0.31323252  0.00000000       0.002
   0.31155748  0.31155748  0.00000000       0.002
   0.30988244  0.30988244  0.00000000       0.002
   0.30820740  0.30820740  0.00000000       0.002
   0.30653236  0.30653236  0.00000000       0.002
   0.30485732  0.30485732  0.00000000       0.002
   0.30318228  0.30318228  0.00000000       0.002
   0.30150724  0.30150724  0.00000000       0.002
   0.29983220  0.29983220  0.00000000       0.002
   0.29815716  0.29815716  0.00000000       0.002
   0.29648212  0.29648212  0.00000000       0.002
   0.29480708  0.29480708  0.00000000       0.002
   0.29313204  0.29313204  0.00000000       0.002
   0.29145699  0.29145699  0.00000000       0.002
   0.28978195  0.28978195  0.00000000       0.002
   0.28810691  0.28810691  0.00000000       0.002
   0.28643187  0.28643187  0.00000000       0.002
   0.28475683  0.28475683  0.00000000       0.002
   0.28308179  0.28308179  0.00000000       0.002
   0.28140675  0.28140675  0.00000000       0.002
   0.27973171  0.27973171  0.00000000       0.002
   0.27805667  0.27805667  0.00000000       0.002
   0.27638163  0.27638163  0.00000000       0.002
   0.27470659  0.27470659  0.00000000       0.002
   0.27303155  0.27303155  0.00000000       0.002
   0.27135651  0.27135651  0.00000000       0.002
   0.26968147  0.26968147  0.00000000       0.002
   0.26800643  0.26800643  0.00000000       0.002
   0.26633139  0.26633139  0.00000000       0.002
   0.26465635  0.26465635  0.00000000       0.002
   0.26298131  0.26298131  0.00000000       0.002
   0.26130627  0.26130627  0.00000000       0.002
   0.25963123  0.25963123  0.00000000       0.002
   0.25795619  0.25795619  0.00000000       0.002
   0.25628115  0.25628115  0.00000000       0.002
   0.25460611  0.25460611  0.00000000       0.002
   0.25293107  0.25293107  0.00000000       0.002
   0.25125603  0.25125603  0.00000000       0.002
   0.24958099  0.24958099  0.00000000       0.002
   0.24790595  0.24790595  0.00000000       0.002
   0.24623091  0.24623091  0.00000000       0.002
   0.24455587  0.24455587  0.00000000       0.002
   0.24288083  0.24288083  0.00000000       0.002
   0.24120579  0.24120579  0.00000000       0.002
   0.23953075  0.23953075  0.00000000       0.002
   0.23785571  0.23785571  0.00000000       0.002
   0.23618067  0.23618067  0.00000000       0.002
   0.23450563  0.23450563  0.00000000       0.002
   0.23283059  0.23283059  0.00000000       0.002
   0.23115555  0.23115555  0.00000000       0.002
   0.22948051  0.22948051  0.00000000       0.002
   0.22780547  0.22780547  0.00000000       0.002
   0.22613043  0.22613043  0.00000000       0.002
   0.22445539  0.22445539  0.00000000       0.002
   0.22278035  0.22278035  0.00000000       0.002
[...]
     16       0.7796      0.00000

 k-point   585 :       0.0251    0.0251    0.0000
  band No.  band energies     occupation 
      1     -59.4992      2.00000
      2     -59.4979      2.00000
      3     -59.3967      2.00000
      4     -15.1354      2.00000
      5      -8.9586      2.00000
      6      -8.9562      2.00000
      7      -8.2037      2.00000
      8      -8.2011      2.00000
      9      -8.0818      2.00000
     10      -5.9709      2.00000
     11      -4.7714      0.00000
     12      -4.7340      0.00000
     13      -3.4703      0.00000
     14      -0.1414      0.00000
     15      -0.1313      0.00000
     16       0.7790      0.00000

 k-point   586 :       0.0235    0.0235    0.0000
  band No.  band energies     occupation 
      1     -59.4992      2.00000
      2     -59.4979      2.00000
      3     -59.3967      2.00000
      4     -15.1355      2.00000
      5      -8.9587      2.00000
      6      -8.9564      2.00000
      7      -8.2036      2.00000
      8      -8.2011      2.00000
      9      -8.0817      2.00000
     10      -5.9714      2.00000
     11      -4.7662      0.00000
     12      -4.7330      0.00000
     13      -3.4756      0.00000
     14      -0.1419      0.00000
     15      -0.1315      0.00000
     16       0.7783      0.00000

 k-point   587 :       0.0218    0.0218    0.0000
  band No.  band energies     occupation 
      1     -59.4992      2.00000
      2     -59.4979      2.00000
      3     -59.3967      2.00000
      4     -15.1357      2.00000
      5      -8.9588      2.00000
      6      -8.9566      2.00000
      7      -8.2035      2.00000
      8      -8.2011      2.00000
      9      -8.0817      2.00000
     10      -5.9719      2.00000
     11      -4.7613      0.00000
     12      -4.7321      0.00000
     13      -3.4805      0.00000
     14      -0.1424      0.00000
     15      -0.1317      0.00000
     16       0.7777      0.00000

 k-point   588 :       0.0201    0.0201    0.0000
  band No.  band energies     occupation 
      1     -59.4992      2.00000
      2     -59.4978      2.00000
      3     -59.3967      2.00000
      4     -15.1358      2.00000
      5      -8.9588      2.00000
      6      -8.9567      2.00000
      7      -8.2034      2.00000
      8      -8.2011      2.00000
      9      -8.0817      2.00000
     10      -5.9723      2.00000
     11      -4.7568      0.00000
     12      -4.7312      0.00000
     13      -3.4851      0.00000
     14      -0.1428      0.00000
     15      -0.1318      0.00000
     16       0.7771      0.00000

 k-point   589 :       0.0184    0.0184    0.0000
  band No.  band energies     occupation 
      1     -59.4992      2.00000
      2     -59.4979      2.00000
      3     -59.3967      2.00000
      4     -15.1359      2.00000
      5      -8.9589      2.00000
      6      -8.9569      2.00000
      7      -8.2033      2.00000
      8      -8.2011      2.00000
      9      -8.0817      2.00000
     10      -5.9727      2.00000
     11      -4.7526      0.00000
     12      -4.7304      0.00000
     13      -3.4894      0.00000
     14      -0.1432      0.00000
     15      -0.1320      0.00000
     16       0.7765      0.00000

 k-point   590 :       0.0168    0.0168    0.0000
  band No.  band energies     occupation 
      1     -59.4992      2.00000
      2     -59.4979      2.00000
      3     -59.3967      2.00000
      4     -15.1360      2.00000
      5      -8.9589      2.00000
      6      -8.9570      2.00000
      7      -8.2032      2.00000
      8      -8.2010      2.00000
      9      -8.0817      2.00000
     10      -5.9730      2.00000
     11      -4.7487      0.00000
     12      -4.7296      0.00000
     13      -3.4933      0.00000
     14      -0.1436      0.00000
     15      -0.1321      0.00000
     16       0.7760      0.00000

 k-point   591 :       0.0151    0.0151    0.0000
  band No.  band energies     occupation 
      1     -59.4992      2.00000
      2     -59.4979      2.00000
      3     -59.3967      2.00000
      4     -15.1361      2.00000
      5      -8.9590      2.00000
      6      -8.9572      2.00000
      7      -8.2031      2.00000
      8      -8.2010      2.00000
      9      -8.0817      2.00000
     10      -5.9733      2.00000
     11      -4.7452      0.00000
     12      -4.7290      0.00000
     13      -3.4968      0.00000
     14      -0.1440      0.00000
     15      -0.1322      0.00000
     16       0.7755      0.00000

 k-point   592 :       0.0134    0.0134    0.0000
  band No.  band energies     occupation 
      1     -59.4992      2.00000
      2     -59.4979      2.00000
      3     -59.3967      2.00000
      4     -15.1362      2.00000
      5      -8.9590      2.00000
      6      -8.9573      2.00000
      7      -8.2030      2.00000
      8      -8.2010      2.00000
      9      -8.0817      2.00000
     10      -5.9736      2.00000
     11      -4.7421      0.00000
     12      -4.7283      0.00000
     13      -3.5000      0.00000
     14      -0.1443      0.00000
     15      -0.1323      0.00000
     16       0.7750      0.00000

 k-point   593 :       0.0117    0.0117    0.0000
  band No.  band energies     occupation 
      1     -59.4992      2.00000
      2     -59.4979      2.00000
      3     -59.3967      2.00000
      4     -15.1363      2.00000
      5      -8.9591      2.00000
      6      -8.9574      2.00000
      7      -8.2030      2.00000
      8      -8.2010      2.00000
      9      -8.0817      2.00000
     10      -5.9738      2.00000
     11      -4.7393      0.00000
     12      -4.7278      0.00000
     13      -3.5029      0.00000
     14      -0.1446      0.00000
     15      -0.1324      0.00000
     16       0.7746      0.00000

 k-point   594 :       0.0101    0.0101    0.0000
  band No.  band energies     occupation 
      1     -59.4992      2.00000
      2     -59.4979      2.00000
      3     -59.3967      2.00000
      4     -15.1364      2.00000
      5      -8.9591      2.00000
      6      -8.9575      2.00000
      7      -8.2029      2.00000
      8      -8.2010      2.00000
      9      -8.0817      2.00000
     10      -5.9741      2.00000
     11      -4.7370      0.00000
     12      -4.7272      0.00000
     13      -3.5054      0.00000
     14      -0.1448      0.00000
     15      -0.1325      0.00000
     16       0.7742      0.00000

 k-point   595 :       0.0084    0.0084    0.0000
  band No.  band energies     occupation 
      1     -59.4992      2.00000
      2     -59.4979      2.00000
      3     -59.3967      2.00000
      4     -15.1364      2.00000
      5      -8.9591      2.00000
      6      -8.9576      2.00000
      7      -8.2029      2.00000
      8      -8.2010      2.00000
      9      -8.0817      2.00000
     10      -5.9742      2.00000
     11      -4.7350      0.00000
     12      -4.7268      0.00000
     13      -3.5075      0.00000
     14      -0.1450      0.00000
     15      -0.1326      0.00000
     16       0.7739      0.00000

 k-point   596 :       0.0067    0.0067    0.0000
  band No.  band energies     occupation 
      1     -59.4992      2.00000
      2     -59.4979      2.00000
      3     -59.3967      2.00000
      4     -15.1365      2.00000
      5      -8.9592      2.00000
      6      -8.9576      2.00000
      7      -8.2028      2.00000
      8      -8.2010      2.00000
      9      -8.0817      2.00000
     10      -5.9744      2.00000
     11      -4.7334      0.00000
     12      -4.7263      0.00000
     13      -3.5092      0.00000
     14      -0.1452      0.00000
     15      -0.1326      0.00000
     16       0.7737      0.00000

 k-point   597 :       0.0050    0.0050    0.0000
  band No.  band energies     occupation 
      1     -59.4992      2.00000
      2     -59.4979      2.00000
      3     -59.3967      2.00000
      4     -15.1365      2.00000
      5      -8.9592      2.00000
      6      -8.9577      2.00000
      7      -8.2028      2.00000
      8      -8.2009      2.00000
      9      -8.0817      2.00000
     10      -5.9745      2.00000
     11      -4.7322      0.00000
     12      -4.7260      0.00000
     13      -3.5105      0.00000
     14      -0.1453      0.00000
     15      -0.1326      0.00000
     16       0.7735      0.00000

 k-point   598 :       0.0034    0.0034    0.0000
  band No.  band energies     occupation 
      1     -59.4992      2.00000
      2     -59.4979      2.00000
      3     -59.3967      2.00000
      4     -15.1365      2.00000
      5      -8.9592      2.00000
      6      -8.9577      2.00000
      7      -8.2028      2.00000
      8      -8.2009      2.00000
      9      -8.0817      2.00000
     10      -5.9746      2.00000
     11      -4.7313      0.00000
     12      -4.7257      0.00000
     13      -3.5115      0.00000
     14      -0.1454      0.00000
     15      -0.1327      0.00000
     16       0.7734      0.00000

 k-point   599 :       0.0017    0.0017    0.0000
  band No.  band energies     occupation 
      1     -59.4992      2.00000
      2     -59.4979      2.00000
      3     -59.3967      2.00000
      4     -15.1365      2.00000
      5      -8.9592      2.00000
      6      -8.9577      2.00000
      7      -8.2028      2.00000
      8      -8.2009      2.00000
      9      -8.0817      2.00000
     10      -5.9746      2.00000
     11      -4.7308      0.00000
     12      -4.7255      0.00000
     13      -3.5121      0.00000
     14      -0.1454      0.00000
     15      -0.1327      0.00000
     16       0.7734      0.00000

 k-point   600 :       0.0000    0.0000    0.0000
  band No.  band energies     occupation 
      1     -59.4992      2.00000
      2     -59.4979      2.00000
      3     -59.3967      2.00000
      4     -15.1366      2.00000
      5      -8.9592      2.00000
      6      -8.9577      2.00000
      7      -8.2028      2.00000
      8      -8.2009      2.00000
      9      -8.0817      2.00000
     10      -5.9747      2.00000
     11      -4.7307      0.00000
     12      -4.7254      0.00000
     13      -3.5123      0.00000
     14      -0.1455      0.00000
     15      -0.1327      0.00000
     16       0.7734      0.00000


--------------------------------------------------------------------------------------------------------


 soft charge-density along one line, spin component           1
         0         1         2         3         4         5         6         7         8         9
 total charge-density along one line
 
 pseudopotential strength for first ion, spin component:           1
  7.757 -22.929   0.000   0.000  -0.000  -0.000   0.000  -0.000
-22.929  72.756  -0.000  -0.001   0.000   0.000  -0.000   0.000
  0.000  -0.000 -44.187   0.000  -0.000  16.355  -0.000   0.000
  0.000  -0.001   0.000 -44.168  -0.000  -0.000  16.324  -0.000
 -0.000   0.000  -0.000  -0.000 -44.187   0.000  -0.000  16.355
 -0.000   0.000  16.355  -0.000   0.000  15.456  -0.000  -0.000
  0.000  -0.000  -0.000  16.324  -0.000  -0.000  15.456  -0.000
 -0.000   0.000   0.000  -0.000  16.355  -0.000  -0.000  15.456
  0.000  -0.000   0.000  -0.000  -0.001  -0.000   0.000   0.000
 -0.000   0.000  -0.001  -0.000  -0.000   0.000   0.000   0.000
 -0.012   0.025   0.000  -0.001  -0.000  -0.000   0.000   0.000
 -0.000   0.000  -0.000   0.000  -0.001   0.000  -0.000   0.000
  0.000  -0.000  -0.000  -0.000   0.000   0.000   0.000  -0.000
  0.000  -0.000   0.000  -0.000  -0.001  -0.000   0.000   0.000
 -0.000   0.000  -0.001  -0.000  -0.000   0.000   0.000   0.000
 -0.012   0.025   0.000  -0.001  -0.000  -0.000   0.000   0.000
 -0.000   0.000  -0.000   0.000  -0.001   0.000  -0.000   0.000
  0.000  -0.000  -0.000  -0.000   0.000   0.000   0.000  -0.000
 total augmentation occupancy for first ion, spin component:           1
  1.000   0.000   0.000   0.000   0.000   0.000   0.000   0.000   0.000   0.000   0.000   0.000   0.000   0.000   0.000   0.000
  0.000   0.000   0.000   0.000   0.000   0.000   0.000   0.000   0.000   0.000   0.000   0.000   0.000   0.000   0.000   0.000
  0.000   0.000   2.000   0.000   0.000   0.000   0.000   0.000   0.000   0.000   0.000   0.000   0.000   0.000   0.000   0.000
  0.000   0.000   0.000   2.000   0.000   0.000   0.000   0.000   0.000   0.000   0.000   0.000   0.000   0.000   0.000   0.000
  0.000   0.000   0.000   0.000   2.000   0.000   0.000   0.000   0.000   0.000   0.000   0.000   0.000   0.000   0.000   0.000
  0.000   0.000   0.000   0.000   0.000   0.000   0.000   0.000   0.000   0.000   0.000   0.000   0.000   0.000   0.000   0.000
  0.000   0.000   0.000   0.000   0.000   0.000   0.000   0.000   0.000   0.000   0.000   0.000   0.000   0.000   0.000   0.000
  0.000   0.000   0.000   0.000   0.000   0.000   0.000   0.000   0.000   0.000   0.000   0.000   0.000   0.000   0.000   0.000
  0.000   0.000   0.000   0.000   0.000   0.000   0.000   0.000   2.000   0.000   0.000   0.000   0.000   0.000   0.000   0.000
  0.000   0.000   0.000   0.000   0.000   0.000   0.000   0.000   0.000   2.000   0.000   0.000   0.000   0.000   0.000   0.000
  0.000   0.000   0.000   0.000   0.000   0.000   0.000   0.000   0.000   0.000   2.000   0.000   0.000   0.000   0.000   0.000
  0.000   0.000   0.000   0.000   0.000   0.000   0.000   0.000   0.000   0.000   0.000   2.000   0.000   0.000   0.000   0.000
  0.000   0.000   0.000   0.000   0.000   0.000   0.000   0.000   0.000   0.000   0.000   0.000   2.000   0.000   0.000   0.000
  0.000   0.000   0.000   0.000   0.000   0.000   0.000   0.000   0.000   0.000   0.000   0.000   0.000   0.000   0.000   0.000
  0.000   0.000   0.000   0.000   0.000   0.000   0.000   0.000   0.000   0.000   0.000   0.000   0.000   0.000   0.000   0.000
  0.000   0.000   0.000   0.000   0.000   0.000   0.000   0.000   0.000   0.000   0.000   0.000   0.000   0.000   0.000   0.000
  0.000   0.000   0.000   0.000   0.000   0.000   0.000   0.000   0.000   0.000   0.000   0.000   0.000   0.000   0.000   0.000
  0.000   0.000   0.000   0.000   0.000   0.000   0.000   0.000   0.000   0.000   0.000   0.000   0.000   0.000   0.000   0.000


------------------------ aborting loop because EDIFF is reached ----------------------------------------


 


 total charge     
 
# of ion     s       p       d       tot
----------------------------------------
  1        0.190   6.014   8.735  14.939
  2        1.365   1.966   0.013   3.344
------------------------------------------------
tot        1.555   7.980   8.748  18.283
 
    CHARGE:  cpu time    1.8558: real time    1.8602
    FORLOC:  cpu time    0.0054: real time    0.0054
    FORNL :  cpu time    7.7571: real time    7.7755
    STRESS:  cpu time   23.3216: real time   23.3768
    FORCOR:  cpu time    0.1096: real time    0.1118
    FORHAR:  cpu time    0.0302: real time    0.0303
    OFIELD:  cpu time    0.0006: real time    0.0006

  FORCE on cell =-STRESS in cart. coord.  units (eV):
  Direction    XX          YY          ZZ          XY          YZ          ZX
  --------------------------------------------------------------------------------------
  Alpha Z     1.90658     1.90658     1.90658
  Ewald   11157.71497 11155.40315-12362.97324     0.13349    -0.00359    -0.00042
  Hartree 11944.42655 11941.32725-11048.46011    -0.07226    -0.01159    -0.00246
  E(xc)    -124.48408  -124.62989  -125.94099    -0.06608     0.00042    -0.00013
  Local  -23510.47760-23505.38618 22974.72995    -1.02122     0.02683     0.00361
  n-local    56.03993    57.13387    65.88617     0.76203     0.00170    -0.00053
  augment   110.17545   109.91103   110.03578    -0.18171    -0.00123    -0.00052
  Kinetic   359.99127   361.06266   377.75624     0.80592    -0.00439     0.00033
  Fock        0.00000     0.00000     0.00000     0.00000     0.00000     0.00000
  -------------------------------------------------------------------------------------
  Total      -4.70695    -3.27152    -7.05961     0.36018     0.00814    -0.00012
  in kB      -5.08792    -3.53631    -7.63100     0.38933     0.00879    -0.00012
  external pressure =       -5.42 kB  Pullay stress =        0.00 kB


 VOLUME and BASIS-vectors are now :
 -----------------------------------------------------------------------------
  energy-cutoff  :      520.00
  volume of cell :     1482.21
      direct lattice vectors                 reciprocal lattice vectors
     5.024974918  0.000000000  0.000000000     0.199005968 -0.114896149  0.000000000
     2.512487459  4.351755932  0.000000000     0.000000000  0.229792299  0.000000000
     0.000000000  0.000000000 67.781557949     0.000000000  0.000000000  0.014753276

  length of vectors
     5.024974918  5.024974918 67.781557949     0.229792299  0.229792299  0.014753276


 FORCES acting on ions
    electron-ion (+dipol)            ewald-force                    non-local-force                 convergence-correction
 -----------------------------------------------------------------------------------------------
   0.139E+01 -.810E+01 0.211E+01   0.534E-01 0.458E+00 -.200E+01   -.452E+00 0.156E+01 0.498E-01   -.928E+00 0.577E+01 -.159E+00
   -.530E+00 0.284E+01 -.189E+01   -.534E-01 -.458E+00 0.200E+01   0.367E+00 -.144E+01 -.842E-01   0.134E+00 -.580E+00 -.355E-01
 -----------------------------------------------------------------------------------------------
   0.856E+00 -.527E+01 0.223E+00   -.144E-13 0.117E-13 0.000E+00   -.846E-01 0.126E+00 -.344E-01   -.793E+00 0.518E+01 -.194E+00
 
 
 POSITION                                       TOTAL-FORCE (eV/Angst)
 -----------------------------------------------------------------------------------
      5.86141      1.46964     16.77924         0.071214     -0.340472      0.002437
      3.34932      0.02248     16.78707        -0.071214      0.340472     -0.002437
 -----------------------------------------------------------------------------------
    total drift:                               -0.021718      0.045564     -0.005723


--------------------------------------------------------------------------------------------------------



  FREE ENERGIE OF THE ION-ELECTRON SYSTEM (eV)
  ---------------------------------------------------
  free  energy   TOTEN  =        -4.09462915 eV

  energy  without entropy=       -4.09277758  energy(sigma->0) =       -4.09370336
 


--------------------------------------------------------------------------------------------------------


    POTLOK:  cpu time    0.1029: real time    0.1032


--------------------------------------------------------------------------------------------------------


     LOOP+:  cpu time  309.7351: real time  310.5651
    4ORBIT:  cpu time    0.0000: real time    0.0000
 


 total charge     
 
# of ion     s       p       d       tot
----------------------------------------
  1        0.190   6.014   8.735  14.939
  2        1.365   1.966   0.013   3.344
------------------------------------------------
tot        1.555   7.980   8.748  18.283
 

 total amount of memory used by VASP on root node   203033. kBytes
========================================================================

   base      :      30000. kBytes
   nonlr-proj:        307. kBytes
   fftplans  :       6610. kBytes
   grid      :      10658. kBytes
   one-center:         15. kBytes
   wavefun   :     155443. kBytes
 
  
  
 General timing and accounting informations for this job:
 ========================================================
  
                  Total CPU time used (sec):      352.580
                            User time (sec):      340.152
                          System time (sec):       12.428
                         Elapsed time (sec):      353.644
  
                   Maximum memory used (kb):      294604.
                   Average memory used (kb):           0.
  
                          Minor page faults:        55701
                          Major page faults:            0
                 Voluntary context switches:         4867
