 running on   24 total cores
 distrk:  each k-point on   24 cores,    1 groups
 distr:  one band on   12 cores,    2 groups
 using from now: INCAR     
 vasp.5.4.1 24Jun15 (build May 17 2017 14:36:12) complex                        
  
 POSCAR found type information on POSCAR  Te
 POSCAR found :  1 types and       2 ions
 scaLAPACK will be used

 ----------------------------------------------------------------------------- 
|                                                                             |
|           W    W    AA    RRRRR   N    N  II  N    N   GGGG   !!!           |
|           W    W   A  A   R    R  NN   N  II  NN   N  G    G  !!!           |
|           W    W  A    A  R    R  N N  N  II  N N  N  G       !!!           |
|           W WW W  AAAAAA  RRRRR   N  N N  II  N  N N  G  GGG   !            |
|           WW  WW  A    A  R   R   N   NN  II  N   NN  G    G                |
|           W    W  A    A  R    R  N    N  II  N    N   GGGG   !!!           |
|                                                                             |
|      For optimal performance we recommend to set                            |
|        NCORE= 4 - approx SQRT( number of cores)                             |
|      NCORE specifies how many cores store one orbital (NPAR=cpu/NCORE).     |
|      This setting can  greatly improve the performance of VASP for DFT.     |
|      The default, NPAR=number of cores might be grossly inefficient         |
|      on modern multi-core architectures or massively parallel machines.     |
|      Do your own testing !!!!                                               |
|      Unfortunately you need to use the default for GW and RPA calculations. |
|      (for HF NCORE is supported but not extensively tested yet)             |
|                                                                             |
 ----------------------------------------------------------------------------- 


 ----------------------------------------------------------------------------- 
|                                                                             |
|  ADVICE TO THIS USER RUNNING 'VASP/VAMP'   (HEAR YOUR MASTER'S VOICE ...):  |
|                                                                             |
|      You have a (more or less) 'small supercell' and for smaller cells      |
|      it is recommended  to use the reciprocal-space projection scheme!      |
|      The real space optimization is not  efficient for small cells and it   |
|      is also less accurate ...                                              |
|      Therefore set LREAL=.FALSE. in the  INCAR file                         |
|                                                                             |
 ----------------------------------------------------------------------------- 

 LDA part: xc-table for Pade appr. of Perdew

 ----------------------------------------------------------------------------- 
|                                                                             |
|           W    W    AA    RRRRR   N    N  II  N    N   GGGG   !!!           |
|           W    W   A  A   R    R  NN   N  II  NN   N  G    G  !!!           |
|           W    W  A    A  R    R  N N  N  II  N N  N  G       !!!           |
|           W WW W  AAAAAA  RRRRR   N  N N  II  N  N N  G  GGG   !            |
|           WW  WW  A    A  R   R   N   NN  II  N   NN  G    G                |
|           W    W  A    A  R    R  N    N  II  N    N   GGGG   !!!           |
|                                                                             |
|      One of the lattice vectors is very long (>50 A), but AMIN is rather    |
|      large. This can spoil convergence since charge sloshing might occur    |
|      along the long lattice vector. If problems with convergence are        |
|      observed, try to decrease AMIN to a smaller values (e.g. 0.01).        |
|      Note: this warning only applies if the selfconsistency cycle is used.  |
|                                                                             |
 ----------------------------------------------------------------------------- 

 WARNING: stress and forces are not correct
 POSCAR, INCAR and KPOINTS ok, starting setup
 WARNING: small aliasing (wrap around) errors must be expected
 FFT: planning ...
 WAVECAR not read
 charge-density read from file: unknown                                 
 WARNING: random wavefunctions but no delay for mixing, default for NELMDL
 entering main loop
       N       E                     dE             d eps       ncg     rms          rms(c)
DAV:   1     0.750708263813E+02    0.75071E+02   -0.18682E+03  2728   0.520E+02
DAV:   2     0.626005786920E+01   -0.68811E+02   -0.60177E+02  3920   0.698E+01
DAV:   3    -0.514909798561E+01   -0.11409E+02   -0.10735E+02  3882   0.481E+01
DAV:   4    -0.550463000098E+01   -0.35553E+00   -0.35553E+00  3082   0.944E+00
DAV:   5    -0.550961355892E+01   -0.49836E-02   -0.49764E-02  2932   0.155E+00
RMM:   6    -0.550982179382E+01   -0.20823E-03   -0.20822E-03  2679   0.300E-01
RMM:   7    -0.550987046949E+01   -0.48676E-04   -0.48791E-04  2894   0.116E-01
RMM:   8    -0.550987086598E+01   -0.39649E-06   -0.55979E-06  1840   0.201E-02
   1 F= -.56504618E+01 E0= -.56507339E+01  d E =0.816315E-03
