<?xml version="1.0" encoding="ISO-8859-1"?>
<modeling>
 <generator>
  <i name="program" type="string">vasp </i>
  <i name="version" type="string">5.4.1  </i>
  <i name="subversion" type="string">05Feb16 (build Sep 02 2018 21:45:25) complex                          parallel </i>
  <i name="platform" type="string">IFC91_ompi </i>
  <i name="date" type="string">2018 09 04 </i>
  <i name="time" type="string">02:50:09 </i>
 </generator>
 <incar>
  <i type="string" name="PREC">accurate</i>
  <i type="string" name="ALGO"> Fast</i>
  <i type="int" name="ICHARG">    11</i>
  <i type="int" name="NELM">   100</i>
  <i type="int" name="IBRION">    -1</i>
  <i name="EDIFF">      0.00001050</i>
  <i name="EDIFFG">     -0.00100000</i>
  <i type="int" name="NSW">     0</i>
  <i type="int" name="ISIF">     2</i>
  <i name="ENCUT">    520.00000000</i>
  <i type="string" name="LREAL"> Auto</i>
  <i type="int" name="ISMEAR">     0</i>
  <i name="SIGMA">      0.05000000</i>
  <i type="logical" name="LWAVE"> F  </i>
  <i type="logical" name="LORBIT"> F  </i>
  <v type="int" name="KPOINT_BSE">    -1     0     0     0</v>
  <i type="int" name="NELM">   100</i>
 </incar>
 <kpoints>
  <generation param="listgenerated">
   <i name="divisions" type="int">     200 </i>
   <v>       0.00000000       0.00000000       0.00000000 </v>
   <v>       0.50000000       0.00000000       0.00000000 </v>
   <v>       0.33333300       0.33333300       0.00000000 </v>
   <v>       0.00000000       0.00000000       0.00000000 </v>
  </generation>
  <varray name="kpointlist" >
   <v>       0.00000000       0.00000000       0.00000000 </v>
   <v>       0.00251256       0.00000000       0.00000000 </v>
   <v>       0.00502513       0.00000000       0.00000000 </v>
   <v>       0.00753769       0.00000000       0.00000000 </v>
   <v>       0.01005025       0.00000000       0.00000000 </v>
   <v>       0.01256281       0.00000000       0.00000000 </v>
   <v>       0.01507538       0.00000000       0.00000000 </v>
   <v>       0.01758794       0.00000000       0.00000000 </v>
   <v>       0.02010050       0.00000000       0.00000000 </v>
   <v>       0.02261307       0.00000000       0.00000000 </v>
   <v>       0.02512563       0.00000000       0.00000000 </v>
   <v>       0.02763819       0.00000000       0.00000000 </v>
   <v>       0.03015075       0.00000000       0.00000000 </v>
   <v>       0.03266332       0.00000000       0.00000000 </v>
   <v>       0.03517588       0.00000000       0.00000000 </v>
   <v>       0.03768844       0.00000000       0.00000000 </v>
   <v>       0.04020101       0.00000000       0.00000000 </v>
   <v>       0.04271357       0.00000000       0.00000000 </v>
   <v>       0.04522613       0.00000000       0.00000000 </v>
   <v>       0.04773869       0.00000000       0.00000000 </v>
   <v>       0.05025126       0.00000000       0.00000000 </v>
   <v>       0.05276382       0.00000000       0.00000000 </v>
   <v>       0.05527638       0.00000000       0.00000000 </v>
   <v>       0.05778894       0.00000000       0.00000000 </v>
   <v>       0.06030151       0.00000000       0.00000000 </v>
   <v>       0.06281407       0.00000000       0.00000000 </v>
   <v>       0.06532663       0.00000000       0.00000000 </v>
   <v>       0.06783920       0.00000000       0.00000000 </v>
   <v>       0.07035176       0.00000000       0.00000000 </v>
   <v>       0.07286432       0.00000000       0.00000000 </v>
   <v>       0.07537688       0.00000000       0.00000000 </v>
   <v>       0.07788945       0.00000000       0.00000000 </v>
   <v>       0.08040201       0.00000000       0.00000000 </v>
   <v>       0.08291457       0.00000000       0.00000000 </v>
   <v>       0.08542714       0.00000000       0.00000000 </v>
   <v>       0.08793970       0.00000000       0.00000000 </v>
   <v>       0.09045226       0.00000000       0.00000000 </v>
   <v>       0.09296482       0.00000000       0.00000000 </v>
   <v>       0.09547739       0.00000000       0.00000000 </v>
   <v>       0.09798995       0.00000000       0.00000000 </v>
   <v>       0.10050251       0.00000000       0.00000000 </v>
   <v>       0.10301508       0.00000000       0.00000000 </v>
   <v>       0.10552764       0.00000000       0.00000000 </v>
   <v>       0.10804020       0.00000000       0.00000000 </v>
   <v>       0.11055276       0.00000000       0.00000000 </v>
   <v>       0.11306533       0.00000000       0.00000000 </v>
   <v>       0.11557789       0.00000000       0.00000000 </v>
   <v>       0.11809045       0.00000000       0.00000000 </v>
   <v>       0.12060302       0.00000000       0.00000000 </v>
   <v>       0.12311558       0.00000000       0.00000000 </v>
   <v>       0.12562814       0.00000000       0.00000000 </v>
   <v>       0.12814070       0.00000000       0.00000000 </v>
   <v>       0.13065327       0.00000000       0.00000000 </v>
   <v>       0.13316583       0.00000000       0.00000000 </v>
   <v>       0.13567839       0.00000000       0.00000000 </v>
   <v>       0.13819095       0.00000000       0.00000000 </v>
   <v>       0.14070352       0.00000000       0.00000000 </v>
   <v>       0.14321608       0.00000000       0.00000000 </v>
   <v>       0.14572864       0.00000000       0.00000000 </v>
   <v>       0.14824121       0.00000000       0.00000000 </v>
   <v>       0.15075377       0.00000000       0.00000000 </v>
   <v>       0.15326633       0.00000000       0.00000000 </v>
   <v>       0.15577889       0.00000000       0.00000000 </v>
   <v>       0.15829146       0.00000000       0.00000000 </v>
   <v>       0.16080402       0.00000000       0.00000000 </v>
   <v>       0.16331658       0.00000000       0.00000000 </v>
   <v>       0.16582915       0.00000000       0.00000000 </v>
   <v>       0.16834171       0.00000000       0.00000000 </v>
   <v>       0.17085427       0.00000000       0.00000000 </v>
   <v>       0.17336683       0.00000000       0.00000000 </v>
   <v>       0.17587940       0.00000000       0.00000000 </v>
   <v>       0.17839196       0.00000000       0.00000000 </v>
   <v>       0.18090452       0.00000000       0.00000000 </v>
   <v>       0.18341709       0.00000000       0.00000000 </v>
   <v>       0.18592965       0.00000000       0.00000000 </v>
   <v>       0.18844221       0.00000000       0.00000000 </v>
   <v>       0.19095477       0.00000000       0.00000000 </v>
   <v>       0.19346734       0.00000000       0.00000000 </v>
   <v>       0.19597990       0.00000000       0.00000000 </v>
   <v>       0.19849246       0.00000000       0.00000000 </v>
   <v>       0.20100503       0.00000000       0.00000000 </v>
   <v>       0.20351759       0.00000000       0.00000000 </v>
   <v>       0.20603015       0.00000000       0.00000000 </v>
   <v>       0.20854271       0.00000000       0.00000000 </v>
   <v>       0.21105528       0.00000000       0.00000000 </v>
   <v>       0.21356784       0.00000000       0.00000000 </v>
   <v>       0.21608040       0.00000000       0.00000000 </v>
   <v>       0.21859296       0.00000000       0.00000000 </v>
   <v>       0.22110553       0.00000000       0.00000000 </v>
   <v>       0.22361809       0.00000000       0.00000000 </v>
   <v>       0.22613065       0.00000000       0.00000000 </v>
   <v>       0.22864322       0.00000000       0.00000000 </v>
   <v>       0.23115578       0.00000000       0.00000000 </v>
   <v>       0.23366834       0.00000000       0.00000000 </v>
   <v>       0.23618090       0.00000000       0.00000000 </v>
   <v>       0.23869347       0.00000000       0.00000000 </v>
   <v>       0.24120603       0.00000000       0.00000000 </v>
   <v>       0.24371859       0.00000000       0.00000000 </v>
   <v>       0.24623116       0.00000000       0.00000000 </v>
   <v>       0.24874372       0.00000000       0.00000000 </v>
   <v>       0.25125628       0.00000000       0.00000000 </v>
   <v>       0.25376884       0.00000000       0.00000000 </v>
   <v>       0.25628141       0.00000000       0.00000000 </v>
   <v>       0.25879397       0.00000000       0.00000000 </v>
   <v>       0.26130653       0.00000000       0.00000000 </v>
   <v>       0.26381910       0.00000000       0.00000000 </v>
   <v>       0.26633166       0.00000000       0.00000000 </v>
   <v>       0.26884422       0.00000000       0.00000000 </v>
   <v>       0.27135678       0.00000000       0.00000000 </v>
   <v>       0.27386935       0.00000000       0.00000000 </v>
   <v>       0.27638191       0.00000000       0.00000000 </v>
   <v>       0.27889447       0.00000000       0.00000000 </v>
   <v>       0.28140704       0.00000000       0.00000000 </v>
   <v>       0.28391960       0.00000000       0.00000000 </v>
   <v>       0.28643216       0.00000000       0.00000000 </v>
   <v>       0.28894472       0.00000000       0.00000000 </v>
   <v>       0.29145729       0.00000000       0.00000000 </v>
   <v>       0.29396985       0.00000000       0.00000000 </v>
   <v>       0.29648241       0.00000000       0.00000000 </v>
   <v>       0.29899497       0.00000000       0.00000000 </v>
   <v>       0.30150754       0.00000000       0.00000000 </v>
   <v>       0.30402010       0.00000000       0.00000000 </v>
   <v>       0.30653266       0.00000000       0.00000000 </v>
   <v>       0.30904523       0.00000000       0.00000000 </v>
   <v>       0.31155779       0.00000000       0.00000000 </v>
   <v>       0.31407035       0.00000000       0.00000000 </v>
   <v>       0.31658291       0.00000000       0.00000000 </v>
   <v>       0.31909548       0.00000000       0.00000000 </v>
   <v>       0.32160804       0.00000000       0.00000000 </v>
   <v>       0.32412060       0.00000000       0.00000000 </v>
   <v>       0.32663317       0.00000000       0.00000000 </v>
   <v>       0.32914573       0.00000000       0.00000000 </v>
   <v>       0.33165829       0.00000000       0.00000000 </v>
   <v>       0.33417085       0.00000000       0.00000000 </v>
   <v>       0.33668342       0.00000000       0.00000000 </v>
   <v>       0.33919598       0.00000000       0.00000000 </v>
   <v>       0.34170854       0.00000000       0.00000000 </v>
   <v>       0.34422111       0.00000000       0.00000000 </v>
   <v>       0.34673367       0.00000000       0.00000000 </v>
   <v>       0.34924623       0.00000000       0.00000000 </v>
   <v>       0.35175879       0.00000000       0.00000000 </v>
   <v>       0.35427136       0.00000000       0.00000000 </v>
   <v>       0.35678392       0.00000000       0.00000000 </v>
   <v>       0.35929648       0.00000000       0.00000000 </v>
   <v>       0.36180905       0.00000000       0.00000000 </v>
   <v>       0.36432161       0.00000000       0.00000000 </v>
   <v>       0.36683417       0.00000000       0.00000000 </v>
   <v>       0.36934673       0.00000000       0.00000000 </v>
   <v>       0.37185930       0.00000000       0.00000000 </v>
   <v>       0.37437186       0.00000000       0.00000000 </v>
   <v>       0.37688442       0.00000000       0.00000000 </v>
   <v>       0.37939698       0.00000000       0.00000000 </v>
   <v>       0.38190955       0.00000000       0.00000000 </v>
   <v>       0.38442211       0.00000000       0.00000000 </v>
   <v>       0.38693467       0.00000000       0.00000000 </v>
   <v>       0.38944724       0.00000000       0.00000000 </v>
   <v>       0.39195980       0.00000000       0.00000000 </v>
   <v>       0.39447236       0.00000000       0.00000000 </v>
   <v>       0.39698492       0.00000000       0.00000000 </v>
   <v>       0.39949749       0.00000000       0.00000000 </v>
   <v>       0.40201005       0.00000000       0.00000000 </v>
   <v>       0.40452261       0.00000000       0.00000000 </v>
   <v>       0.40703518       0.00000000       0.00000000 </v>
   <v>       0.40954774       0.00000000       0.00000000 </v>
   <v>       0.41206030       0.00000000       0.00000000 </v>
   <v>       0.41457286       0.00000000       0.00000000 </v>
   <v>       0.41708543       0.00000000       0.00000000 </v>
   <v>       0.41959799       0.00000000       0.00000000 </v>
   <v>       0.42211055       0.00000000       0.00000000 </v>
   <v>       0.42462312       0.00000000       0.00000000 </v>
   <v>       0.42713568       0.00000000       0.00000000 </v>
   <v>       0.42964824       0.00000000       0.00000000 </v>
   <v>       0.43216080       0.00000000       0.00000000 </v>
   <v>       0.43467337       0.00000000       0.00000000 </v>
   <v>       0.43718593       0.00000000       0.00000000 </v>
   <v>       0.43969849       0.00000000       0.00000000 </v>
   <v>       0.44221106       0.00000000       0.00000000 </v>
   <v>       0.44472362       0.00000000       0.00000000 </v>
   <v>       0.44723618       0.00000000       0.00000000 </v>
   <v>       0.44974874       0.00000000       0.00000000 </v>
   <v>       0.45226131       0.00000000       0.00000000 </v>
   <v>       0.45477387       0.00000000       0.00000000 </v>
   <v>       0.45728643       0.00000000       0.00000000 </v>
   <v>       0.45979899       0.00000000       0.00000000 </v>
   <v>       0.46231156       0.00000000       0.00000000 </v>
   <v>       0.46482412       0.00000000       0.00000000 </v>
   <v>       0.46733668       0.00000000       0.00000000 </v>
   <v>       0.46984925       0.00000000       0.00000000 </v>
   <v>       0.47236181       0.00000000       0.00000000 </v>
   <v>       0.47487437       0.00000000       0.00000000 </v>
   <v>       0.47738693       0.00000000       0.00000000 </v>
   <v>       0.47989950       0.00000000       0.00000000 </v>
   <v>       0.48241206       0.00000000       0.00000000 </v>
   <v>       0.48492462       0.00000000       0.00000000 </v>
   <v>       0.48743719       0.00000000       0.00000000 </v>
   <v>       0.48994975       0.00000000       0.00000000 </v>
   <v>       0.49246231       0.00000000       0.00000000 </v>
   <v>       0.49497487       0.00000000       0.00000000 </v>
   <v>       0.49748744       0.00000000       0.00000000 </v>
   <v>       0.50000000       0.00000000       0.00000000 </v>
   <v>       0.50000000       0.00000000       0.00000000 </v>
   <v>       0.49916248       0.00167504       0.00000000 </v>
   <v>       0.49832495       0.00335008       0.00000000 </v>
   <v>       0.49748743       0.00502512       0.00000000 </v>
   <v>       0.49664991       0.00670016       0.00000000 </v>
   <v>       0.49581239       0.00837520       0.00000000 </v>
   <v>       0.49497486       0.01005024       0.00000000 </v>
   <v>       0.49413734       0.01172528       0.00000000 </v>
   <v>       0.49329982       0.01340032       0.00000000 </v>
   <v>       0.49246230       0.01507536       0.00000000 </v>
   <v>       0.49162477       0.01675040       0.00000000 </v>
   <v>       0.49078725       0.01842544       0.00000000 </v>
   <v>       0.48994973       0.02010048       0.00000000 </v>
   <v>       0.48911221       0.02177552       0.00000000 </v>
   <v>       0.48827468       0.02345056       0.00000000 </v>
   <v>       0.48743716       0.02512560       0.00000000 </v>
   <v>       0.48659964       0.02680064       0.00000000 </v>
   <v>       0.48576212       0.02847568       0.00000000 </v>
   <v>       0.48492459       0.03015072       0.00000000 </v>
   <v>       0.48408707       0.03182576       0.00000000 </v>
   <v>       0.48324955       0.03350080       0.00000000 </v>
   <v>       0.48241203       0.03517584       0.00000000 </v>
   <v>       0.48157450       0.03685088       0.00000000 </v>
   <v>       0.48073698       0.03852592       0.00000000 </v>
   <v>       0.47989946       0.04020096       0.00000000 </v>
   <v>       0.47906193       0.04187601       0.00000000 </v>
   <v>       0.47822441       0.04355105       0.00000000 </v>
   <v>       0.47738689       0.04522609       0.00000000 </v>
   <v>       0.47654937       0.04690113       0.00000000 </v>
   <v>       0.47571184       0.04857617       0.00000000 </v>
   <v>       0.47487432       0.05025121       0.00000000 </v>
   <v>       0.47403680       0.05192625       0.00000000 </v>
   <v>       0.47319928       0.05360129       0.00000000 </v>
   <v>       0.47236175       0.05527633       0.00000000 </v>
   <v>       0.47152423       0.05695137       0.00000000 </v>
   <v>       0.47068671       0.05862641       0.00000000 </v>
   <v>       0.46984919       0.06030145       0.00000000 </v>
   <v>       0.46901166       0.06197649       0.00000000 </v>
   <v>       0.46817414       0.06365153       0.00000000 </v>
   <v>       0.46733662       0.06532657       0.00000000 </v>
   <v>       0.46649910       0.06700161       0.00000000 </v>
   <v>       0.46566157       0.06867665       0.00000000 </v>
   <v>       0.46482405       0.07035169       0.00000000 </v>
   <v>       0.46398653       0.07202673       0.00000000 </v>
   <v>       0.46314901       0.07370177       0.00000000 </v>
   <v>       0.46231148       0.07537681       0.00000000 </v>
   <v>       0.46147396       0.07705185       0.00000000 </v>
   <v>       0.46063644       0.07872689       0.00000000 </v>
   <v>       0.45979891       0.08040193       0.00000000 </v>
   <v>       0.45896139       0.08207697       0.00000000 </v>
   <v>       0.45812387       0.08375201       0.00000000 </v>
   <v>       0.45728635       0.08542705       0.00000000 </v>
   <v>       0.45644882       0.08710209       0.00000000 </v>
   <v>       0.45561130       0.08877713       0.00000000 </v>
   <v>       0.45477378       0.09045217       0.00000000 </v>
   <v>       0.45393626       0.09212721       0.00000000 </v>
   <v>       0.45309873       0.09380225       0.00000000 </v>
   <v>       0.45226121       0.09547729       0.00000000 </v>
   <v>       0.45142369       0.09715233       0.00000000 </v>
   <v>       0.45058617       0.09882737       0.00000000 </v>
   <v>       0.44974864       0.10050241       0.00000000 </v>
   <v>       0.44891112       0.10217745       0.00000000 </v>
   <v>       0.44807360       0.10385249       0.00000000 </v>
   <v>       0.44723608       0.10552753       0.00000000 </v>
   <v>       0.44639855       0.10720257       0.00000000 </v>
   <v>       0.44556103       0.10887761       0.00000000 </v>
   <v>       0.44472351       0.11055265       0.00000000 </v>
   <v>       0.44388598       0.11222769       0.00000000 </v>
   <v>       0.44304846       0.11390273       0.00000000 </v>
   <v>       0.44221094       0.11557777       0.00000000 </v>
   <v>       0.44137342       0.11725281       0.00000000 </v>
   <v>       0.44053589       0.11892785       0.00000000 </v>
   <v>       0.43969837       0.12060289       0.00000000 </v>
   <v>       0.43886085       0.12227793       0.00000000 </v>
   <v>       0.43802333       0.12395297       0.00000000 </v>
   <v>       0.43718580       0.12562802       0.00000000 </v>
   <v>       0.43634828       0.12730306       0.00000000 </v>
   <v>       0.43551076       0.12897810       0.00000000 </v>
   <v>       0.43467324       0.13065314       0.00000000 </v>
   <v>       0.43383571       0.13232818       0.00000000 </v>
   <v>       0.43299819       0.13400322       0.00000000 </v>
   <v>       0.43216067       0.13567826       0.00000000 </v>
   <v>       0.43132315       0.13735330       0.00000000 </v>
   <v>       0.43048562       0.13902834       0.00000000 </v>
   <v>       0.42964810       0.14070338       0.00000000 </v>
   <v>       0.42881058       0.14237842       0.00000000 </v>
   <v>       0.42797306       0.14405346       0.00000000 </v>
   <v>       0.42713553       0.14572850       0.00000000 </v>
   <v>       0.42629801       0.14740354       0.00000000 </v>
   <v>       0.42546049       0.14907858       0.00000000 </v>
   <v>       0.42462296       0.15075362       0.00000000 </v>
   <v>       0.42378544       0.15242866       0.00000000 </v>
   <v>       0.42294792       0.15410370       0.00000000 </v>
   <v>       0.42211040       0.15577874       0.00000000 </v>
   <v>       0.42127287       0.15745378       0.00000000 </v>
   <v>       0.42043535       0.15912882       0.00000000 </v>
   <v>       0.41959783       0.16080386       0.00000000 </v>
   <v>       0.41876031       0.16247890       0.00000000 </v>
   <v>       0.41792278       0.16415394       0.00000000 </v>
   <v>       0.41708526       0.16582898       0.00000000 </v>
   <v>       0.41624774       0.16750402       0.00000000 </v>
   <v>       0.41541022       0.16917906       0.00000000 </v>
   <v>       0.41457269       0.17085410       0.00000000 </v>
   <v>       0.41373517       0.17252914       0.00000000 </v>
   <v>       0.41289765       0.17420418       0.00000000 </v>
   <v>       0.41206013       0.17587922       0.00000000 </v>
   <v>       0.41122260       0.17755426       0.00000000 </v>
   <v>       0.41038508       0.17922930       0.00000000 </v>
   <v>       0.40954756       0.18090434       0.00000000 </v>
   <v>       0.40871004       0.18257938       0.00000000 </v>
   <v>       0.40787251       0.18425442       0.00000000 </v>
   <v>       0.40703499       0.18592946       0.00000000 </v>
   <v>       0.40619747       0.18760450       0.00000000 </v>
   <v>       0.40535994       0.18927954       0.00000000 </v>
   <v>       0.40452242       0.19095458       0.00000000 </v>
   <v>       0.40368490       0.19262962       0.00000000 </v>
   <v>       0.40284738       0.19430466       0.00000000 </v>
   <v>       0.40200985       0.19597970       0.00000000 </v>
   <v>       0.40117233       0.19765474       0.00000000 </v>
   <v>       0.40033481       0.19932978       0.00000000 </v>
   <v>       0.39949729       0.20100482       0.00000000 </v>
   <v>       0.39865976       0.20267986       0.00000000 </v>
   <v>       0.39782224       0.20435490       0.00000000 </v>
   <v>       0.39698472       0.20602994       0.00000000 </v>
   <v>       0.39614720       0.20770498       0.00000000 </v>
   <v>       0.39530967       0.20938003       0.00000000 </v>
   <v>       0.39447215       0.21105507       0.00000000 </v>
   <v>       0.39363463       0.21273011       0.00000000 </v>
   <v>       0.39279711       0.21440515       0.00000000 </v>
   <v>       0.39195958       0.21608019       0.00000000 </v>
   <v>       0.39112206       0.21775523       0.00000000 </v>
   <v>       0.39028454       0.21943027       0.00000000 </v>
   <v>       0.38944702       0.22110531       0.00000000 </v>
   <v>       0.38860949       0.22278035       0.00000000 </v>
   <v>       0.38777197       0.22445539       0.00000000 </v>
   <v>       0.38693445       0.22613043       0.00000000 </v>
   <v>       0.38609692       0.22780547       0.00000000 </v>
   <v>       0.38525940       0.22948051       0.00000000 </v>
   <v>       0.38442188       0.23115555       0.00000000 </v>
   <v>       0.38358436       0.23283059       0.00000000 </v>
   <v>       0.38274683       0.23450563       0.00000000 </v>
   <v>       0.38190931       0.23618067       0.00000000 </v>
   <v>       0.38107179       0.23785571       0.00000000 </v>
   <v>       0.38023427       0.23953075       0.00000000 </v>
   <v>       0.37939674       0.24120579       0.00000000 </v>
   <v>       0.37855922       0.24288083       0.00000000 </v>
   <v>       0.37772170       0.24455587       0.00000000 </v>
   <v>       0.37688418       0.24623091       0.00000000 </v>
   <v>       0.37604665       0.24790595       0.00000000 </v>
   <v>       0.37520913       0.24958099       0.00000000 </v>
   <v>       0.37437161       0.25125603       0.00000000 </v>
   <v>       0.37353409       0.25293107       0.00000000 </v>
   <v>       0.37269656       0.25460611       0.00000000 </v>
   <v>       0.37185904       0.25628115       0.00000000 </v>
   <v>       0.37102152       0.25795619       0.00000000 </v>
   <v>       0.37018399       0.25963123       0.00000000 </v>
   <v>       0.36934647       0.26130627       0.00000000 </v>
   <v>       0.36850895       0.26298131       0.00000000 </v>
   <v>       0.36767143       0.26465635       0.00000000 </v>
   <v>       0.36683390       0.26633139       0.00000000 </v>
   <v>       0.36599638       0.26800643       0.00000000 </v>
   <v>       0.36515886       0.26968147       0.00000000 </v>
   <v>       0.36432134       0.27135651       0.00000000 </v>
   <v>       0.36348381       0.27303155       0.00000000 </v>
   <v>       0.36264629       0.27470659       0.00000000 </v>
   <v>       0.36180877       0.27638163       0.00000000 </v>
   <v>       0.36097125       0.27805667       0.00000000 </v>
   <v>       0.36013372       0.27973171       0.00000000 </v>
   <v>       0.35929620       0.28140675       0.00000000 </v>
   <v>       0.35845868       0.28308179       0.00000000 </v>
   <v>       0.35762116       0.28475683       0.00000000 </v>
   <v>       0.35678363       0.28643187       0.00000000 </v>
   <v>       0.35594611       0.28810691       0.00000000 </v>
   <v>       0.35510859       0.28978195       0.00000000 </v>
   <v>       0.35427107       0.29145699       0.00000000 </v>
   <v>       0.35343354       0.29313204       0.00000000 </v>
   <v>       0.35259602       0.29480708       0.00000000 </v>
   <v>       0.35175850       0.29648212       0.00000000 </v>
   <v>       0.35092097       0.29815716       0.00000000 </v>
   <v>       0.35008345       0.29983220       0.00000000 </v>
   <v>       0.34924593       0.30150724       0.00000000 </v>
   <v>       0.34840841       0.30318228       0.00000000 </v>
   <v>       0.34757088       0.30485732       0.00000000 </v>
   <v>       0.34673336       0.30653236       0.00000000 </v>
   <v>       0.34589584       0.30820740       0.00000000 </v>
   <v>       0.34505832       0.30988244       0.00000000 </v>
   <v>       0.34422079       0.31155748       0.00000000 </v>
   <v>       0.34338327       0.31323252       0.00000000 </v>
   <v>       0.34254575       0.31490756       0.00000000 </v>
   <v>       0.34170823       0.31658260       0.00000000 </v>
   <v>       0.34087070       0.31825764       0.00000000 </v>
   <v>       0.34003318       0.31993268       0.00000000 </v>
   <v>       0.33919566       0.32160772       0.00000000 </v>
   <v>       0.33835814       0.32328276       0.00000000 </v>
   <v>       0.33752061       0.32495780       0.00000000 </v>
   <v>       0.33668309       0.32663284       0.00000000 </v>
   <v>       0.33584557       0.32830788       0.00000000 </v>
   <v>       0.33500805       0.32998292       0.00000000 </v>
   <v>       0.33417052       0.33165796       0.00000000 </v>
   <v>       0.33333300       0.33333300       0.00000000 </v>
   <v>       0.33333300       0.33333300       0.00000000 </v>
   <v>       0.33165796       0.33165796       0.00000000 </v>
   <v>       0.32998292       0.32998292       0.00000000 </v>
   <v>       0.32830788       0.32830788       0.00000000 </v>
   <v>       0.32663284       0.32663284       0.00000000 </v>
   <v>       0.32495780       0.32495780       0.00000000 </v>
   <v>       0.32328276       0.32328276       0.00000000 </v>
   <v>       0.32160772       0.32160772       0.00000000 </v>
   <v>       0.31993268       0.31993268       0.00000000 </v>
   <v>       0.31825764       0.31825764       0.00000000 </v>
   <v>       0.31658260       0.31658260       0.00000000 </v>
   <v>       0.31490756       0.31490756       0.00000000 </v>
   <v>       0.31323252       0.31323252       0.00000000 </v>
   <v>       0.31155748       0.31155748       0.00000000 </v>
   <v>       0.30988244       0.30988244       0.00000000 </v>
   <v>       0.30820740       0.30820740       0.00000000 </v>
   <v>       0.30653236       0.30653236       0.00000000 </v>
   <v>       0.30485732       0.30485732       0.00000000 </v>
   <v>       0.30318228       0.30318228       0.00000000 </v>
   <v>       0.30150724       0.30150724       0.00000000 </v>
   <v>       0.29983220       0.29983220       0.00000000 </v>
   <v>       0.29815716       0.29815716       0.00000000 </v>
   <v>       0.29648212       0.29648212       0.00000000 </v>
   <v>       0.29480708       0.29480708       0.00000000 </v>
   <v>       0.29313204       0.29313204       0.00000000 </v>
   <v>       0.29145699       0.29145699       0.00000000 </v>
   <v>       0.28978195       0.28978195       0.00000000 </v>
   <v>       0.28810691       0.28810691       0.00000000 </v>
   <v>       0.28643187       0.28643187       0.00000000 </v>
   <v>       0.28475683       0.28475683       0.00000000 </v>
   <v>       0.28308179       0.28308179       0.00000000 </v>
   <v>       0.28140675       0.28140675       0.00000000 </v>
   <v>       0.27973171       0.27973171       0.00000000 </v>
   <v>       0.27805667       0.27805667       0.00000000 </v>
   <v>       0.27638163       0.27638163       0.00000000 </v>
   <v>       0.27470659       0.27470659       0.00000000 </v>
   <v>       0.27303155       0.27303155       0.00000000 </v>
   <v>       0.27135651       0.27135651       0.00000000 </v>
   <v>       0.26968147       0.26968147       0.00000000 </v>
   <v>       0.26800643       0.26800643       0.00000000 </v>
   <v>       0.26633139       0.26633139       0.00000000 </v>
   <v>       0.26465635       0.26465635       0.00000000 </v>
   <v>       0.26298131       0.26298131       0.00000000 </v>
   <v>       0.26130627       0.26130627       0.00000000 </v>
   <v>       0.25963123       0.25963123       0.00000000 </v>
   <v>       0.25795619       0.25795619       0.00000000 </v>
   <v>       0.25628115       0.25628115       0.00000000 </v>
   <v>       0.25460611       0.25460611       0.00000000 </v>
   <v>       0.25293107       0.25293107       0.00000000 </v>
   <v>       0.25125603       0.25125603       0.00000000 </v>
   <v>       0.24958099       0.24958099       0.00000000 </v>
   <v>       0.24790595       0.24790595       0.00000000 </v>
   <v>       0.24623091       0.24623091       0.00000000 </v>
   <v>       0.24455587       0.24455587       0.00000000 </v>
   <v>       0.24288083       0.24288083       0.00000000 </v>
   <v>       0.24120579       0.24120579       0.00000000 </v>
   <v>       0.23953075       0.23953075       0.00000000 </v>
   <v>       0.23785571       0.23785571       0.00000000 </v>
   <v>       0.23618067       0.23618067       0.00000000 </v>
   <v>       0.23450563       0.23450563       0.00000000 </v>
   <v>       0.23283059       0.23283059       0.00000000 </v>
   <v>       0.23115555       0.23115555       0.00000000 </v>
   <v>       0.22948051       0.22948051       0.00000000 </v>
   <v>       0.22780547       0.22780547       0.00000000 </v>
   <v>       0.22613043       0.22613043       0.00000000 </v>
   <v>       0.22445539       0.22445539       0.00000000 </v>
   <v>       0.22278035       0.22278035       0.00000000 </v>
   <v>       0.22110531       0.22110531       0.00000000 </v>
   <v>       0.21943027       0.21943027       0.00000000 </v>
   <v>       0.21775523       0.21775523       0.00000000 </v>
   <v>       0.21608019       0.21608019       0.00000000 </v>
   <v>       0.21440515       0.21440515       0.00000000 </v>
   <v>       0.21273011       0.21273011       0.00000000 </v>
   <v>       0.21105507       0.21105507       0.00000000 </v>
   <v>       0.20938003       0.20938003       0.00000000 </v>
   <v>       0.20770498       0.20770498       0.00000000 </v>
   <v>       0.20602994       0.20602994       0.00000000 </v>
   <v>       0.20435490       0.20435490       0.00000000 </v>
   <v>       0.20267986       0.20267986       0.00000000 </v>
   <v>       0.20100482       0.20100482       0.00000000 </v>
   <v>       0.19932978       0.19932978       0.00000000 </v>
   <v>       0.19765474       0.19765474       0.00000000 </v>
   <v>       0.19597970       0.19597970       0.00000000 </v>
   <v>       0.19430466       0.19430466       0.00000000 </v>
   <v>       0.19262962       0.19262962       0.00000000 </v>
   <v>       0.19095458       0.19095458       0.00000000 </v>
   <v>       0.18927954       0.18927954       0.00000000 </v>
   <v>       0.18760450       0.18760450       0.00000000 </v>
   <v>       0.18592946       0.18592946       0.00000000 </v>
   <v>       0.18425442       0.18425442       0.00000000 </v>
   <v>       0.18257938       0.18257938       0.00000000 </v>
   <v>       0.18090434       0.18090434       0.00000000 </v>
   <v>       0.17922930       0.17922930       0.00000000 </v>
   <v>       0.17755426       0.17755426       0.00000000 </v>
   <v>       0.17587922       0.17587922       0.00000000 </v>
   <v>       0.17420418       0.17420418       0.00000000 </v>
   <v>       0.17252914       0.17252914       0.00000000 </v>
   <v>       0.17085410       0.17085410       0.00000000 </v>
   <v>       0.16917906       0.16917906       0.00000000 </v>
   <v>       0.16750402       0.16750402       0.00000000 </v>
   <v>       0.16582898       0.16582898       0.00000000 </v>
   <v>       0.16415394       0.16415394       0.00000000 </v>
   <v>       0.16247890       0.16247890       0.00000000 </v>
   <v>       0.16080386       0.16080386       0.00000000 </v>
   <v>       0.15912882       0.15912882       0.00000000 </v>
   <v>       0.15745378       0.15745378       0.00000000 </v>
   <v>       0.15577874       0.15577874       0.00000000 </v>
   <v>       0.15410370       0.15410370       0.00000000 </v>
   <v>       0.15242866       0.15242866       0.00000000 </v>
   <v>       0.15075362       0.15075362       0.00000000 </v>
   <v>       0.14907858       0.14907858       0.00000000 </v>
   <v>       0.14740354       0.14740354       0.00000000 </v>
   <v>       0.14572850       0.14572850       0.00000000 </v>
   <v>       0.14405346       0.14405346       0.00000000 </v>
   <v>       0.14237842       0.14237842       0.00000000 </v>
   <v>       0.14070338       0.14070338       0.00000000 </v>
   <v>       0.13902834       0.13902834       0.00000000 </v>
   <v>       0.13735330       0.13735330       0.00000000 </v>
   <v>       0.13567826       0.13567826       0.00000000 </v>
   <v>       0.13400322       0.13400322       0.00000000 </v>
   <v>       0.13232818       0.13232818       0.00000000 </v>
   <v>       0.13065314       0.13065314       0.00000000 </v>
   <v>       0.12897810       0.12897810       0.00000000 </v>
   <v>       0.12730306       0.12730306       0.00000000 </v>
   <v>       0.12562802       0.12562802       0.00000000 </v>
   <v>       0.12395297       0.12395297       0.00000000 </v>
   <v>       0.12227793       0.12227793       0.00000000 </v>
   <v>       0.12060289       0.12060289       0.00000000 </v>
   <v>       0.11892785       0.11892785       0.00000000 </v>
   <v>       0.11725281       0.11725281       0.00000000 </v>
   <v>       0.11557777       0.11557777       0.00000000 </v>
   <v>       0.11390273       0.11390273       0.00000000 </v>
   <v>       0.11222769       0.11222769       0.00000000 </v>
   <v>       0.11055265       0.11055265       0.00000000 </v>
   <v>       0.10887761       0.10887761       0.00000000 </v>
   <v>       0.10720257       0.10720257       0.00000000 </v>
   <v>       0.10552753       0.10552753       0.00000000 </v>
   <v>       0.10385249       0.10385249       0.00000000 </v>
   <v>       0.10217745       0.10217745       0.00000000 </v>
   <v>       0.10050241       0.10050241       0.00000000 </v>
   <v>       0.09882737       0.09882737       0.00000000 </v>
   <v>       0.09715233       0.09715233       0.00000000 </v>
   <v>       0.09547729       0.09547729       0.00000000 </v>
   <v>       0.09380225       0.09380225       0.00000000 </v>
   <v>       0.09212721       0.09212721       0.00000000 </v>
   <v>       0.09045217       0.09045217       0.00000000 </v>
   <v>       0.08877713       0.08877713       0.00000000 </v>
   <v>       0.08710209       0.08710209       0.00000000 </v>
   <v>       0.08542705       0.08542705       0.00000000 </v>
   <v>       0.08375201       0.08375201       0.00000000 </v>
   <v>       0.08207697       0.08207697       0.00000000 </v>
   <v>       0.08040193       0.08040193       0.00000000 </v>
   <v>       0.07872689       0.07872689       0.00000000 </v>
   <v>       0.07705185       0.07705185       0.00000000 </v>
   <v>       0.07537681       0.07537681       0.00000000 </v>
   <v>       0.07370177       0.07370177       0.00000000 </v>
   <v>       0.07202673       0.07202673       0.00000000 </v>
   <v>       0.07035169       0.07035169       0.00000000 </v>
   <v>       0.06867665       0.06867665       0.00000000 </v>
   <v>       0.06700161       0.06700161       0.00000000 </v>
   <v>       0.06532657       0.06532657       0.00000000 </v>
   <v>       0.06365153       0.06365153       0.00000000 </v>
   <v>       0.06197649       0.06197649       0.00000000 </v>
   <v>       0.06030145       0.06030145       0.00000000 </v>
   <v>       0.05862641       0.05862641       0.00000000 </v>
   <v>       0.05695137       0.05695137       0.00000000 </v>
   <v>       0.05527633       0.05527633       0.00000000 </v>
   <v>       0.05360129       0.05360129       0.00000000 </v>
   <v>       0.05192625       0.05192625       0.00000000 </v>
   <v>       0.05025121       0.05025121       0.00000000 </v>
   <v>       0.04857617       0.04857617       0.00000000 </v>
   <v>       0.04690113       0.04690113       0.00000000 </v>
   <v>       0.04522609       0.04522609       0.00000000 </v>
   <v>       0.04355105       0.04355105       0.00000000 </v>
   <v>       0.04187601       0.04187601       0.00000000 </v>
   <v>       0.04020096       0.04020096       0.00000000 </v>
   <v>       0.03852592       0.03852592       0.00000000 </v>
   <v>       0.03685088       0.03685088       0.00000000 </v>
   <v>       0.03517584       0.03517584       0.00000000 </v>
   <v>       0.03350080       0.03350080       0.00000000 </v>
   <v>       0.03182576       0.03182576       0.00000000 </v>
   <v>       0.03015072       0.03015072       0.00000000 </v>
   <v>       0.02847568       0.02847568       0.00000000 </v>
   <v>       0.02680064       0.02680064       0.00000000 </v>
   <v>       0.02512560       0.02512560       0.00000000 </v>
   <v>       0.02345056       0.02345056       0.00000000 </v>
   <v>       0.02177552       0.02177552       0.00000000 </v>
   <v>       0.02010048       0.02010048       0.00000000 </v>
   <v>       0.01842544       0.01842544       0.00000000 </v>
   <v>       0.01675040       0.01675040       0.00000000 </v>
   <v>       0.01507536       0.01507536       0.00000000 </v>
   <v>       0.01340032       0.01340032       0.00000000 </v>
   <v>       0.01172528       0.01172528       0.00000000 </v>
   <v>       0.01005024       0.01005024       0.00000000 </v>
   <v>       0.00837520       0.00837520       0.00000000 </v>
   <v>       0.00670016       0.00670016       0.00000000 </v>
   <v>       0.00502512       0.00502512       0.00000000 </v>
   <v>       0.00335008       0.00335008       0.00000000 </v>
   <v>       0.00167504       0.00167504       0.00000000 </v>
   <v>       0.00000000       0.00000000       0.00000000 </v>
  </varray>
  <varray name="weights" >
   <v>       0.00166667 </v>
   <v>       0.00166667 </v>
   <v>       0.00166667 </v>
   <v>       0.00166667 </v>
   <v>       0.00166667 </v>
   <v>       0.00166667 </v>
   <v>       0.00166667 </v>
   <v>       0.00166667 </v>
   <v>       0.00166667 </v>
   <v>       0.00166667 </v>
   <v>       0.00166667 </v>
   <v>       0.00166667 </v>
   <v>       0.00166667 </v>
   <v>       0.00166667 </v>
   <v>       0.00166667 </v>
   <v>       0.00166667 </v>
   <v>       0.00166667 </v>
   <v>       0.00166667 </v>
   <v>       0.00166667 </v>
   <v>       0.00166667 </v>
   <v>       0.00166667 </v>
   <v>       0.00166667 </v>
   <v>       0.00166667 </v>
   <v>       0.00166667 </v>
   <v>       0.00166667 </v>
   <v>       0.00166667 </v>
   <v>       0.00166667 </v>
   <v>       0.00166667 </v>
   <v>       0.00166667 </v>
   <v>       0.00166667 </v>
   <v>       0.00166667 </v>
   <v>       0.00166667 </v>
   <v>       0.00166667 </v>
   <v>       0.00166667 </v>
   <v>       0.00166667 </v>
   <v>       0.00166667 </v>
   <v>       0.00166667 </v>
   <v>       0.00166667 </v>
   <v>       0.00166667 </v>
   <v>       0.00166667 </v>
   <v>       0.00166667 </v>
   <v>       0.00166667 </v>
   <v>       0.00166667 </v>
   <v>       0.00166667 </v>
   <v>       0.00166667 </v>
   <v>       0.00166667 </v>
   <v>       0.00166667 </v>
   <v>       0.00166667 </v>
   <v>       0.00166667 </v>
   <v>       0.00166667 </v>
   <v>       0.00166667 </v>
   <v>       0.00166667 </v>
   <v>       0.00166667 </v>
   <v>       0.00166667 </v>
   <v>       0.00166667 </v>
   <v>       0.00166667 </v>
   <v>       0.00166667 </v>
   <v>       0.00166667 </v>
   <v>       0.00166667 </v>
   <v>       0.00166667 </v>
   <v>       0.00166667 </v>
   <v>       0.00166667 </v>
   <v>       0.00166667 </v>
   <v>       0.00166667 </v>
   <v>       0.00166667 </v>
   <v>       0.00166667 </v>
   <v>       0.00166667 </v>
   <v>       0.00166667 </v>
   <v>       0.00166667 </v>
   <v>       0.00166667 </v>
   <v>       0.00166667 </v>
   <v>       0.00166667 </v>
   <v>       0.00166667 </v>
   <v>       0.00166667 </v>
   <v>       0.00166667 </v>
   <v>       0.00166667 </v>
   <v>       0.00166667 </v>
   <v>       0.00166667 </v>
   <v>       0.00166667 </v>
   <v>       0.00166667 </v>
   <v>       0.00166667 </v>
   <v>       0.00166667 </v>
   <v>       0.00166667 </v>
   <v>       0.00166667 </v>
   <v>       0.00166667 </v>
   <v>       0.00166667 </v>
   <v>       0.00166667 </v>
   <v>       0.00166667 </v>
   <v>       0.00166667 </v>
   <v>       0.00166667 </v>
   <v>       0.00166667 </v>
   <v>       0.00166667 </v>
   <v>       0.00166667 </v>
   <v>       0.00166667 </v>
   <v>       0.00166667 </v>
   <v>       0.00166667 </v>
   <v>       0.00166667 </v>
   <v>       0.00166667 </v>
   <v>       0.00166667 </v>
   <v>       0.00166667 </v>
   <v>       0.00166667 </v>
   <v>       0.00166667 </v>
   <v>       0.00166667 </v>
   <v>       0.00166667 </v>
   <v>       0.00166667 </v>
   <v>       0.00166667 </v>
   <v>       0.00166667 </v>
   <v>       0.00166667 </v>
   <v>       0.00166667 </v>
   <v>       0.00166667 </v>
   <v>       0.00166667 </v>
   <v>       0.00166667 </v>
   <v>       0.00166667 </v>
   <v>       0.00166667 </v>
   <v>       0.00166667 </v>
   <v>       0.00166667 </v>
   <v>       0.00166667 </v>
   <v>       0.00166667 </v>
   <v>       0.00166667 </v>
   <v>       0.00166667 </v>
   <v>       0.00166667 </v>
   <v>       0.00166667 </v>
   <v>       0.00166667 </v>
   <v>       0.00166667 </v>
   <v>       0.00166667 </v>
   <v>       0.00166667 </v>
   <v>       0.00166667 </v>
   <v>       0.00166667 </v>
   <v>       0.00166667 </v>
   <v>       0.00166667 </v>
   <v>       0.00166667 </v>
   <v>       0.00166667 </v>
   <v>       0.00166667 </v>
   <v>       0.00166667 </v>
   <v>       0.00166667 </v>
   <v>       0.00166667 </v>
   <v>       0.00166667 </v>
   <v>       0.00166667 </v>
   <v>       0.00166667 </v>
   <v>       0.00166667 </v>
   <v>       0.00166667 </v>
   <v>       0.00166667 </v>
   <v>       0.00166667 </v>
   <v>       0.00166667 </v>
   <v>       0.00166667 </v>
   <v>       0.00166667 </v>
   <v>       0.00166667 </v>
   <v>       0.00166667 </v>
   <v>       0.00166667 </v>
   <v>       0.00166667 </v>
   <v>       0.00166667 </v>
   <v>       0.00166667 </v>
   <v>       0.00166667 </v>
   <v>       0.00166667 </v>
   <v>       0.00166667 </v>
   <v>       0.00166667 </v>
   <v>       0.00166667 </v>
   <v>       0.00166667 </v>
   <v>       0.00166667 </v>
   <v>       0.00166667 </v>
   <v>       0.00166667 </v>
   <v>       0.00166667 </v>
   <v>       0.00166667 </v>
   <v>       0.00166667 </v>
   <v>       0.00166667 </v>
   <v>       0.00166667 </v>
   <v>       0.00166667 </v>
   <v>       0.00166667 </v>
   <v>       0.00166667 </v>
   <v>       0.00166667 </v>
   <v>       0.00166667 </v>
   <v>       0.00166667 </v>
   <v>       0.00166667 </v>
   <v>       0.00166667 </v>
   <v>       0.00166667 </v>
   <v>       0.00166667 </v>
   <v>       0.00166667 </v>
   <v>       0.00166667 </v>
   <v>       0.00166667 </v>
   <v>       0.00166667 </v>
   <v>       0.00166667 </v>
   <v>       0.00166667 </v>
   <v>       0.00166667 </v>
   <v>       0.00166667 </v>
   <v>       0.00166667 </v>
   <v>       0.00166667 </v>
   <v>       0.00166667 </v>
   <v>       0.00166667 </v>
   <v>       0.00166667 </v>
   <v>       0.00166667 </v>
   <v>       0.00166667 </v>
   <v>       0.00166667 </v>
   <v>       0.00166667 </v>
   <v>       0.00166667 </v>
   <v>       0.00166667 </v>
   <v>       0.00166667 </v>
   <v>       0.00166667 </v>
   <v>       0.00166667 </v>
   <v>       0.00166667 </v>
   <v>       0.00166667 </v>
   <v>       0.00166667 </v>
   <v>       0.00166667 </v>
   <v>       0.00166667 </v>
   <v>       0.00166667 </v>
   <v>       0.00166667 </v>
   <v>       0.00166667 </v>
   <v>       0.00166667 </v>
   <v>       0.00166667 </v>
   <v>       0.00166667 </v>
   <v>       0.00166667 </v>
   <v>       0.00166667 </v>
   <v>       0.00166667 </v>
   <v>       0.00166667 </v>
   <v>       0.00166667 </v>
   <v>       0.00166667 </v>
   <v>       0.00166667 </v>
   <v>       0.00166667 </v>
   <v>       0.00166667 </v>
   <v>       0.00166667 </v>
   <v>       0.00166667 </v>
   <v>       0.00166667 </v>
   <v>       0.00166667 </v>
   <v>       0.00166667 </v>
   <v>       0.00166667 </v>
   <v>       0.00166667 </v>
   <v>       0.00166667 </v>
   <v>       0.00166667 </v>
   <v>       0.00166667 </v>
   <v>       0.00166667 </v>
   <v>       0.00166667 </v>
   <v>       0.00166667 </v>
   <v>       0.00166667 </v>
   <v>       0.00166667 </v>
   <v>       0.00166667 </v>
   <v>       0.00166667 </v>
   <v>       0.00166667 </v>
   <v>       0.00166667 </v>
   <v>       0.00166667 </v>
   <v>       0.00166667 </v>
   <v>       0.00166667 </v>
   <v>       0.00166667 </v>
   <v>       0.00166667 </v>
   <v>       0.00166667 </v>
   <v>       0.00166667 </v>
   <v>       0.00166667 </v>
   <v>       0.00166667 </v>
   <v>       0.00166667 </v>
   <v>       0.00166667 </v>
   <v>       0.00166667 </v>
   <v>       0.00166667 </v>
   <v>       0.00166667 </v>
   <v>       0.00166667 </v>
   <v>       0.00166667 </v>
   <v>       0.00166667 </v>
   <v>       0.00166667 </v>
   <v>       0.00166667 </v>
   <v>       0.00166667 </v>
   <v>       0.00166667 </v>
   <v>       0.00166667 </v>
   <v>       0.00166667 </v>
   <v>       0.00166667 </v>
   <v>       0.00166667 </v>
   <v>       0.00166667 </v>
   <v>       0.00166667 </v>
   <v>       0.00166667 </v>
   <v>       0.00166667 </v>
   <v>       0.00166667 </v>
   <v>       0.00166667 </v>
   <v>       0.00166667 </v>
   <v>       0.00166667 </v>
   <v>       0.00166667 </v>
   <v>       0.00166667 </v>
   <v>       0.00166667 </v>
   <v>       0.00166667 </v>
   <v>       0.00166667 </v>
   <v>       0.00166667 </v>
   <v>       0.00166667 </v>
   <v>       0.00166667 </v>
   <v>       0.00166667 </v>
   <v>       0.00166667 </v>
   <v>       0.00166667 </v>
   <v>       0.00166667 </v>
   <v>       0.00166667 </v>
   <v>       0.00166667 </v>
   <v>       0.00166667 </v>
   <v>       0.00166667 </v>
   <v>       0.00166667 </v>
   <v>       0.00166667 </v>
   <v>       0.00166667 </v>
   <v>       0.00166667 </v>
   <v>       0.00166667 </v>
   <v>       0.00166667 </v>
   <v>       0.00166667 </v>
   <v>       0.00166667 </v>
   <v>       0.00166667 </v>
   <v>       0.00166667 </v>
   <v>       0.00166667 </v>
   <v>       0.00166667 </v>
   <v>       0.00166667 </v>
   <v>       0.00166667 </v>
   <v>       0.00166667 </v>
   <v>       0.00166667 </v>
   <v>       0.00166667 </v>
   <v>       0.00166667 </v>
   <v>       0.00166667 </v>
   <v>       0.00166667 </v>
   <v>       0.00166667 </v>
   <v>       0.00166667 </v>
   <v>       0.00166667 </v>
   <v>       0.00166667 </v>
   <v>       0.00166667 </v>
   <v>       0.00166667 </v>
   <v>       0.00166667 </v>
   <v>       0.00166667 </v>
   <v>       0.00166667 </v>
   <v>       0.00166667 </v>
   <v>       0.00166667 </v>
   <v>       0.00166667 </v>
   <v>       0.00166667 </v>
   <v>       0.00166667 </v>
   <v>       0.00166667 </v>
   <v>       0.00166667 </v>
   <v>       0.00166667 </v>
   <v>       0.00166667 </v>
   <v>       0.00166667 </v>
   <v>       0.00166667 </v>
   <v>       0.00166667 </v>
   <v>       0.00166667 </v>
   <v>       0.00166667 </v>
   <v>       0.00166667 </v>
   <v>       0.00166667 </v>
   <v>       0.00166667 </v>
   <v>       0.00166667 </v>
   <v>       0.00166667 </v>
   <v>       0.00166667 </v>
   <v>       0.00166667 </v>
   <v>       0.00166667 </v>
   <v>       0.00166667 </v>
   <v>       0.00166667 </v>
   <v>       0.00166667 </v>
   <v>       0.00166667 </v>
   <v>       0.00166667 </v>
   <v>       0.00166667 </v>
   <v>       0.00166667 </v>
   <v>       0.00166667 </v>
   <v>       0.00166667 </v>
   <v>       0.00166667 </v>
   <v>       0.00166667 </v>
   <v>       0.00166667 </v>
   <v>       0.00166667 </v>
   <v>       0.00166667 </v>
   <v>       0.00166667 </v>
   <v>       0.00166667 </v>
   <v>       0.00166667 </v>
   <v>       0.00166667 </v>
   <v>       0.00166667 </v>
   <v>       0.00166667 </v>
   <v>       0.00166667 </v>
   <v>       0.00166667 </v>
   <v>       0.00166667 </v>
   <v>       0.00166667 </v>
   <v>       0.00166667 </v>
   <v>       0.00166667 </v>
   <v>       0.00166667 </v>
   <v>       0.00166667 </v>
   <v>       0.00166667 </v>
   <v>       0.00166667 </v>
   <v>       0.00166667 </v>
   <v>       0.00166667 </v>
   <v>       0.00166667 </v>
   <v>       0.00166667 </v>
   <v>       0.00166667 </v>
   <v>       0.00166667 </v>
   <v>       0.00166667 </v>
   <v>       0.00166667 </v>
   <v>       0.00166667 </v>
   <v>       0.00166667 </v>
   <v>       0.00166667 </v>
   <v>       0.00166667 </v>
   <v>       0.00166667 </v>
   <v>       0.00166667 </v>
   <v>       0.00166667 </v>
   <v>       0.00166667 </v>
   <v>       0.00166667 </v>
   <v>       0.00166667 </v>
   <v>       0.00166667 </v>
   <v>       0.00166667 </v>
   <v>       0.00166667 </v>
   <v>       0.00166667 </v>
   <v>       0.00166667 </v>
   <v>       0.00166667 </v>
   <v>       0.00166667 </v>
   <v>       0.00166667 </v>
   <v>       0.00166667 </v>
   <v>       0.00166667 </v>
   <v>       0.00166667 </v>
   <v>       0.00166667 </v>
   <v>       0.00166667 </v>
   <v>       0.00166667 </v>
   <v>       0.00166667 </v>
   <v>       0.00166667 </v>
   <v>       0.00166667 </v>
   <v>       0.00166667 </v>
   <v>       0.00166667 </v>
   <v>       0.00166667 </v>
   <v>       0.00166667 </v>
   <v>       0.00166667 </v>
   <v>       0.00166667 </v>
   <v>       0.00166667 </v>
   <v>       0.00166667 </v>
   <v>       0.00166667 </v>
   <v>       0.00166667 </v>
   <v>       0.00166667 </v>
   <v>       0.00166667 </v>
   <v>       0.00166667 </v>
   <v>       0.00166667 </v>
   <v>       0.00166667 </v>
   <v>       0.00166667 </v>
   <v>       0.00166667 </v>
   <v>       0.00166667 </v>
   <v>       0.00166667 </v>
   <v>       0.00166667 </v>
   <v>       0.00166667 </v>
   <v>       0.00166667 </v>
   <v>       0.00166667 </v>
   <v>       0.00166667 </v>
   <v>       0.00166667 </v>
   <v>       0.00166667 </v>
   <v>       0.00166667 </v>
   <v>       0.00166667 </v>
   <v>       0.00166667 </v>
   <v>       0.00166667 </v>
   <v>       0.00166667 </v>
   <v>       0.00166667 </v>
   <v>       0.00166667 </v>
   <v>       0.00166667 </v>
   <v>       0.00166667 </v>
   <v>       0.00166667 </v>
   <v>       0.00166667 </v>
   <v>       0.00166667 </v>
   <v>       0.00166667 </v>
   <v>       0.00166667 </v>
   <v>       0.00166667 </v>
   <v>       0.00166667 </v>
   <v>       0.00166667 </v>
   <v>       0.00166667 </v>
   <v>       0.00166667 </v>
   <v>       0.00166667 </v>
   <v>       0.00166667 </v>
   <v>       0.00166667 </v>
   <v>       0.00166667 </v>
   <v>       0.00166667 </v>
   <v>       0.00166667 </v>
   <v>       0.00166667 </v>
   <v>       0.00166667 </v>
   <v>       0.00166667 </v>
   <v>       0.00166667 </v>
   <v>       0.00166667 </v>
   <v>       0.00166667 </v>
   <v>       0.00166667 </v>
   <v>       0.00166667 </v>
   <v>       0.00166667 </v>
   <v>       0.00166667 </v>
   <v>       0.00166667 </v>
   <v>       0.00166667 </v>
   <v>       0.00166667 </v>
   <v>       0.00166667 </v>
   <v>       0.00166667 </v>
   <v>       0.00166667 </v>
   <v>       0.00166667 </v>
   <v>       0.00166667 </v>
   <v>       0.00166667 </v>
   <v>       0.00166667 </v>
   <v>       0.00166667 </v>
   <v>       0.00166667 </v>
   <v>       0.00166667 </v>
   <v>       0.00166667 </v>
   <v>       0.00166667 </v>
   <v>       0.00166667 </v>
   <v>       0.00166667 </v>
   <v>       0.00166667 </v>
   <v>       0.00166667 </v>
   <v>       0.00166667 </v>
   <v>       0.00166667 </v>
   <v>       0.00166667 </v>
   <v>       0.00166667 </v>
   <v>       0.00166667 </v>
   <v>       0.00166667 </v>
   <v>       0.00166667 </v>
   <v>       0.00166667 </v>
   <v>       0.00166667 </v>
   <v>       0.00166667 </v>
   <v>       0.00166667 </v>
   <v>       0.00166667 </v>
   <v>       0.00166667 </v>
   <v>       0.00166667 </v>
   <v>       0.00166667 </v>
   <v>       0.00166667 </v>
   <v>       0.00166667 </v>
   <v>       0.00166667 </v>
   <v>       0.00166667 </v>
   <v>       0.00166667 </v>
   <v>       0.00166667 </v>
   <v>       0.00166667 </v>
   <v>       0.00166667 </v>
   <v>       0.00166667 </v>
   <v>       0.00166667 </v>
   <v>       0.00166667 </v>
   <v>       0.00166667 </v>
   <v>       0.00166667 </v>
   <v>       0.00166667 </v>
   <v>       0.00166667 </v>
   <v>       0.00166667 </v>
   <v>       0.00166667 </v>
   <v>       0.00166667 </v>
   <v>       0.00166667 </v>
   <v>       0.00166667 </v>
   <v>       0.00166667 </v>
   <v>       0.00166667 </v>
   <v>       0.00166667 </v>
   <v>       0.00166667 </v>
   <v>       0.00166667 </v>
   <v>       0.00166667 </v>
   <v>       0.00166667 </v>
   <v>       0.00166667 </v>
   <v>       0.00166667 </v>
   <v>       0.00166667 </v>
   <v>       0.00166667 </v>
   <v>       0.00166667 </v>
   <v>       0.00166667 </v>
   <v>       0.00166667 </v>
   <v>       0.00166667 </v>
   <v>       0.00166667 </v>
   <v>       0.00166667 </v>
   <v>       0.00166667 </v>
   <v>       0.00166667 </v>
   <v>       0.00166667 </v>
   <v>       0.00166667 </v>
   <v>       0.00166667 </v>
   <v>       0.00166667 </v>
   <v>       0.00166667 </v>
   <v>       0.00166667 </v>
   <v>       0.00166667 </v>
   <v>       0.00166667 </v>
   <v>       0.00166667 </v>
   <v>       0.00166667 </v>
   <v>       0.00166667 </v>
   <v>       0.00166667 </v>
   <v>       0.00166667 </v>
   <v>       0.00166667 </v>
   <v>       0.00166667 </v>
   <v>       0.00166667 </v>
   <v>       0.00166667 </v>
   <v>       0.00166667 </v>
   <v>       0.00166667 </v>
   <v>       0.00166667 </v>
   <v>       0.00166667 </v>
   <v>       0.00166667 </v>
   <v>       0.00166667 </v>
   <v>       0.00166667 </v>
   <v>       0.00166667 </v>
   <v>       0.00166667 </v>
   <v>       0.00166667 </v>
   <v>       0.00166667 </v>
   <v>       0.00166667 </v>
   <v>       0.00166667 </v>
   <v>       0.00166667 </v>
   <v>       0.00166667 </v>
   <v>       0.00166667 </v>
   <v>       0.00166667 </v>
   <v>       0.00166667 </v>
   <v>       0.00166667 </v>
   <v>       0.00166667 </v>
   <v>       0.00166667 </v>
   <v>       0.00166667 </v>
   <v>       0.00166667 </v>
   <v>       0.00166667 </v>
   <v>       0.00166667 </v>
   <v>       0.00166667 </v>
   <v>       0.00166667 </v>
   <v>       0.00166667 </v>
   <v>       0.00166667 </v>
   <v>       0.00166667 </v>
   <v>       0.00166667 </v>
   <v>       0.00166667 </v>
   <v>       0.00166667 </v>
   <v>       0.00166667 </v>
   <v>       0.00166667 </v>
   <v>       0.00166667 </v>
   <v>       0.00166667 </v>
   <v>       0.00166667 </v>
   <v>       0.00166667 </v>
   <v>       0.00166667 </v>
   <v>       0.00166667 </v>
   <v>       0.00166667 </v>
   <v>       0.00166667 </v>
   <v>       0.00166667 </v>
   <v>       0.00166667 </v>
   <v>       0.00166667 </v>
   <v>       0.00166667 </v>
  </varray>
 </kpoints>
 <parameters>
  <separator name="general" >
   <i type="string" name="SYSTEM">unknown system</i>
   <i type="logical" name="LCOMPAT"> F  </i>
  </separator>
  <separator name="electronic" >
   <i type="string" name="PREC">accura</i>
   <i name="ENMAX">    520.00000000</i>
   <i name="ENAUG">    532.84300000</i>
   <i name="EDIFF">      0.00001050</i>
   <i type="int" name="IALGO">    68</i>
   <i type="int" name="IWAVPR">    10</i>
   <i type="int" name="NBANDS">    16</i>
   <i name="NELECT">     23.00000000</i>
   <i type="int" name="TURBO">     0</i>
   <i type="int" name="IRESTART">     0</i>
   <i type="int" name="NREBOOT">     0</i>
   <i type="int" name="NMIN">     0</i>
   <i name="EREF">      0.00000000</i>
   <separator name="electronic smearing" >
    <i type="int" name="ISMEAR">     0</i>
    <i name="SIGMA">      0.05000000</i>
    <i name="KSPACING">      0.50000000</i>
    <i type="logical" name="KGAMMA"> T  </i>
   </separator>
   <separator name="electronic projectors" >
    <i type="logical" name="LREAL"> T  </i>
    <v name="ROPT">     -0.00025000     -0.00025000</v>
    <i type="int" name="LMAXPAW">  -100</i>
    <i type="int" name="LMAXMIX">     2</i>
    <i type="logical" name="NLSPLINE"> F  </i>
   </separator>
   <separator name="electronic startup" >
    <i type="int" name="ISTART">     1</i>
    <i type="int" name="ICHARG">    11</i>
    <i type="int" name="INIWAV">     1</i>
   </separator>
   <separator name="electronic spin" >
    <i type="int" name="ISPIN">     1</i>
    <i type="logical" name="LNONCOLLINEAR"> F  </i>
    <v name="MAGMOM">      1.00000000      1.00000000</v>
    <i name="NUPDOWN">     -1.00000000</i>
    <i type="logical" name="LSORBIT"> F  </i>
    <v name="SAXIS">      0.00000000      0.00000000      1.00000000</v>
    <i type="logical" name="LSPIRAL"> F  </i>
    <v name="QSPIRAL">      0.00000000      0.00000000      0.00000000</v>
    <i type="logical" name="LZEROZ"> F  </i>
   </separator>
   <separator name="electronic exchange-correlation" >
    <i type="logical" name="LASPH"> F  </i>
    <i type="logical" name="LMETAGGA"> F  </i>
   </separator>
   <separator name="electronic convergence" >
    <i type="int" name="NELM">   100</i>
    <i type="int" name="NELMDL">     0</i>
    <i type="int" name="NELMIN">     2</i>
    <i name="ENINI">    520.00000000</i>
    <separator name="electronic convergence detail" >
     <i type="logical" name="LDIAG"> T  </i>
     <i type="logical" name="LSUBROT"> F  </i>
     <i name="WEIMIN">      0.00000000</i>
     <i name="EBREAK">      0.00000016</i>
     <i name="DEPER">      0.30000000</i>
     <i type="int" name="NRMM">     4</i>
     <i name="TIME">      0.40000000</i>
    </separator>
   </separator>
   <separator name="electronic mixer" >
    <i name="AMIX">      0.40000000</i>
    <i name="BMIX">      1.00000000</i>
    <i name="AMIN">      0.10000000</i>
    <i name="AMIX_MAG">      1.60000000</i>
    <i name="BMIX_MAG">      1.00000000</i>
    <separator name="electronic mixer details" >
     <i type="int" name="IMIX">     4</i>
     <i type="logical" name="MIXFIRST"> F  </i>
     <i type="int" name="MAXMIX">   -45</i>
     <i name="WC">    100.00000000</i>
     <i type="int" name="INIMIX">     1</i>
     <i type="int" name="MIXPRE">     1</i>
     <i type="int" name="MREMOVE">     5</i>
    </separator>
   </separator>
   <separator name="electronic dipolcorrection" >
    <i type="logical" name="LDIPOL"> F  </i>
    <i type="logical" name="LMONO"> F  </i>
    <i type="int" name="IDIPOL">     0</i>
    <i name="EPSILON">      1.00000000</i>
    <v name="DIPOL">   -100.00000000   -100.00000000   -100.00000000</v>
    <i name="EFIELD">      0.00000000</i>
   </separator>
  </separator>
  <separator name="grids" >
   <i type="int" name="NGX">    40</i>
   <i type="int" name="NGY">    40</i>
   <i type="int" name="NGZ">   504</i>
   <i type="int" name="NGXF">    80</i>
   <i type="int" name="NGYF">    80</i>
   <i type="int" name="NGZF">  1008</i>
   <i type="logical" name="ADDGRID"> F  </i>
  </separator>
  <separator name="ionic" >
   <i type="int" name="NSW">     0</i>
   <i type="int" name="IBRION">    -1</i>
   <i type="int" name="ISIF">     2</i>
   <i name="PSTRESS">      0.00000000</i>
   <i name="EDIFFG">     -0.00100000</i>
   <i type="int" name="NFREE">     0</i>
   <i name="POTIM">      0.50000000</i>
   <i name="SMASS">     -3.00000000</i>
   <i name="SCALEE">      1.00000000</i>
  </separator>
  <separator name="ionic md" >
   <i name="TEBEG">      0.00010000</i>
   <i name="TEEND">      0.00010000</i>
   <i type="int" name="NBLOCK">     1</i>
   <i type="int" name="KBLOCK">     1</i>
   <i type="int" name="NPACO">   256</i>
   <i name="APACO">     16.00000000</i>
  </separator>
  <separator name="symmetry" >
   <i type="int" name="ISYM">     2</i>
   <i name="SYMPREC">      0.00001000</i>
  </separator>
  <separator name="dos" >
   <i type="logical" name="LORBIT"> F  </i>
   <v name="RWIGS">     -1.00000000     -1.00000000</v>
   <i type="int" name="NEDOS">   301</i>
   <i name="EMIN">     10.00000000</i>
   <i name="EMAX">    -10.00000000</i>
   <i name="EFERMI">      0.00000000</i>
  </separator>
  <separator name="writing" >
   <i type="int" name="NWRITE">     2</i>
   <i type="logical" name="LWAVE"> F  </i>
   <i type="logical" name="LCHARG"> T  </i>
   <i type="logical" name="LPARD"> F  </i>
   <i type="logical" name="LVTOT"> F  </i>
   <i type="logical" name="LVHAR"> F  </i>
   <i type="logical" name="LELF"> F  </i>
   <i type="logical" name="LOPTICS"> F  </i>
   <v name="STM">      0.00000000      0.00000000      0.00000000      0.00000000      0.00000000      0.00000000      0.00000000</v>
  </separator>
  <separator name="performance" >
   <i type="int" name="NPAR">     2</i>
   <i type="int" name="NSIM">     4</i>
   <i type="int" name="NBLK">    -1</i>
   <i type="logical" name="LPLANE"> T  </i>
   <i type="logical" name="LSCALAPACK"> T  </i>
   <i type="logical" name="LSCAAWARE"> F  </i>
   <i type="logical" name="LSCALU"> F  </i>
   <i type="logical" name="LASYNC"> F  </i>
   <i type="logical" name="LORBITALREAL"> F  </i>
  </separator>
  <separator name="miscellaneous" >
   <i type="int" name="IDIOT">     3</i>
   <i type="logical" name="LMUSIC"> F  </i>
   <v name="POMASS">    107.86800000    127.60000000</v>
   <v name="DARWINR">      0.00000000      0.00000000</v>
   <v name="DARWINV">      1.00000000      1.00000000</v>
   <i type="logical" name="LCORR"> T  </i>
  </separator>
  <i type="logical" name="GGA_COMPAT"> T  </i>
  <i type="logical" name="LBERRY"> F  </i>
  <i type="int" name="ICORELEVEL">     0</i>
  <i type="logical" name="LDAU"> F  </i>
  <i type="int" name="I_CONSTRAINED_M">     0</i>
  <separator name="electronic exchange-correlation" >
   <i type="string" name="GGA">--</i>
   <i type="int" name="VOSKOWN">     0</i>
   <i type="logical" name="LHFCALC"> F  </i>
   <i type="string" name="PRECFOCK"></i>
   <i type="logical" name="LSYMGRAD"> F  </i>
   <i type="logical" name="LHFONE"> F  </i>
   <i type="logical" name="LRHFCALC"> F  </i>
   <i type="logical" name="LTHOMAS"> F  </i>
   <i type="logical" name="LMODELHF"> F  </i>
   <i name="ENCUT4O">     -1.00000000</i>
   <i type="int" name="EXXOEP">     0</i>
   <i type="int" name="FOURORBIT">     0</i>
   <i name="AEXX">      0.00000000</i>
   <i name="HFALPHA">      0.00000000</i>
   <i name="MCALPHA">      0.00000000</i>
   <i name="ALDAX">      1.00000000</i>
   <i name="AGGAX">      1.00000000</i>
   <i name="ALDAC">      1.00000000</i>
   <i name="AGGAC">      1.00000000</i>
   <i type="int" name="NKREDX">     1</i>
   <i type="int" name="NKREDY">     1</i>
   <i type="int" name="NKREDZ">     1</i>
   <i type="logical" name="SHIFTRED"> F  </i>
   <i type="logical" name="ODDONLY"> F  </i>
   <i type="logical" name="EVENONLY"> F  </i>
   <i type="int" name="LMAXFOCK">     0</i>
   <i type="int" name="NMAXFOCKAE">     0</i>
   <i type="logical" name="LFOCKAEDFT"> F  </i>
   <i name="HFSCREEN">      0.00000000</i>
   <i name="HFSCREENC">      0.00000000</i>
   <i type="int" name="NBANDSGWLOW">     0</i>
  </separator>
  <separator name="vdW DFT" >
   <i type="logical" name="LUSE_VDW"> F  </i>
   <i name="Zab_VDW">     -0.84910000</i>
   <i name="PARAM1">      0.12340000</i>
   <i name="PARAM2">      1.00000000</i>
   <i name="PARAM3">      0.00000000</i>
  </separator>
  <separator name="model GW" >
   <i type="int" name="MODEL_GW">     0</i>
   <i name="MODEL_EPS0">    444.66324184</i>
   <i name="MODEL_ALPHA">      1.00000000</i>
  </separator>
  <separator name="linear response parameters" >
   <i type="logical" name="LEPSILON"> F  </i>
   <i type="logical" name="LRPA"> F  </i>
   <i type="logical" name="LNABLA"> F  </i>
   <i type="logical" name="LVEL"> F  </i>
   <i type="int" name="KINTER">     0</i>
   <i name="CSHIFT">      0.10000000</i>
   <i name="OMEGAMAX">     -1.00000000</i>
   <i name="DEG_THRESHOLD">      0.00200000</i>
  </separator>
  <separator name="orbital magnetization" >
   <i type="logical" name="NUCIND"> F  </i>
   <v name="MAGPOS">      0.00000000      0.00000000      0.00000000</v>
   <i type="logical" name="LNICSALL"> T  </i>
   <i type="logical" name="ORBITALMAG"> F  </i>
   <i type="logical" name="LMAGBLOCH"> F  </i>
   <i type="logical" name="LCHIMAG"> F  </i>
   <i type="logical" name="LGAUGE"> T  </i>
   <i type="int" name="MAGATOM">     0</i>
   <v name="MAGDIPOL">      0.00000000      0.00000000      0.00000000</v>
   <v name="AVECCONST">      0.00000000      0.00000000      0.00000000</v>
  </separator>
  <separator name="response functions" >
   <i type="logical" name="LADDER"> F  </i>
   <i type="logical" name="LFXC"> F  </i>
   <i type="logical" name="LHARTREE"> T  </i>
   <i type="int" name="IBSE">     0</i>
   <v type="int" name="KPOINT">    -1     0     0     0</v>
   <i type="logical" name="LTCTE"> F  </i>
   <i type="logical" name="LTETE"> F  </i>
   <i type="logical" name="LTRIPLET"> F  </i>
   <i type="logical" name="LFXCEPS"> F  </i>
   <i type="logical" name="LFXHEG"> F  </i>
   <i type="int" name="NATURALO">     0</i>
   <i type="logical" name="L2ORDER"> F  </i>
   <i type="logical" name="LUSEW"> F  </i>
   <i name="ENCUTGW">     -2.00000000</i>
   <i name="ENCUTGWSOFT">     -2.00000000</i>
   <i name="ENCUTLF">     -1.00000000</i>
   <i type="int" name="LMAXMP2">    -1</i>
   <i name="SCISSOR">      0.00000000</i>
   <i type="int" name="NOMEGA">     0</i>
   <i type="int" name="NOMEGAR">     0</i>
   <i type="int" name="NBANDSGW">    -1</i>
   <i type="int" name="NBANDSO">    -1</i>
   <i type="int" name="NBANDSV">    -1</i>
   <i type="int" name="NELM">   100</i>
   <i type="int" name="NELMHF">     1</i>
   <i type="int" name="DIM">     3</i>
   <i type="int" name="ANTIRES">     0</i>
   <i name="OMEGAMAX">    -30.00000000</i>
   <i name="OMEGAMIN">    -30.00000000</i>
   <i name="OMEGATL">   -200.00000000</i>
   <i type="int" name="OMEGAGRID">     0</i>
   <i name="CSHIFT">     -0.10000000</i>
   <i type="logical" name="SELFENERGY"> F  </i>
   <i type="logical" name="LSPECTRAL"> F  </i>
   <i type="logical" name="LSPECTRALGW"> F  </i>
   <i type="logical" name="LSINGLES"> F  </i>
   <i type="logical" name="LFERMIGW"> F  </i>
   <i type="logical" name="ODDONLYGW"> F  </i>
   <i type="logical" name="EVENONLYGW"> F  </i>
   <i type="int" name="NKREDLFX">     1</i>
   <i type="int" name="NKREDLFY">     1</i>
   <i type="int" name="NKREDLFZ">     1</i>
   <i type="int" name="MAXMEM">  1800</i>
   <i type="int" name="TELESCOPE">     0</i>
   <i type="int" name="TAUPAR">     1</i>
   <i type="int" name="OMEGAPAR">    -1</i>
   <i name="LAMBDA">      1.00000000</i>
  </separator>
  <separator name="External order field" >
   <i name="OFIELD_KAPPA">      0.00000000</i>
   <v name="OFIELD_K">      0.00000000      0.00000000      0.00000000</v>
   <i name="OFIELD_Q6_NEAR">      0.00000000</i>
   <i name="OFIELD_Q6_FAR">      0.00000000</i>
   <i name="OFIELD_A">      0.00000000</i>
  </separator>
 </parameters>
 <atominfo>
  <atoms>       2 </atoms>
  <types>       2 </types>
  <array name="atoms" >
   <dimension dim="1">ion</dimension>
   <field type="string">element</field>
   <field type="int">atomtype</field>
   <set>
    <rc><c>Ag</c><c>   1</c></rc>
    <rc><c>Te</c><c>   2</c></rc>
   </set>
  </array>
  <array name="atomtypes" >
   <dimension dim="1">type</dimension>
   <field type="int">atomspertype</field>
   <field type="string">element</field>
   <field>mass</field>
   <field>valence</field>
   <field type="string">pseudopotential</field>
   <set>
    <rc><c>   1</c><c>Ag</c><c>    107.86800000</c><c>     17.00000000</c><c>  PAW_PBE Ag_pv 09Dec2005               </c></rc>
    <rc><c>   1</c><c>Te</c><c>    127.60000000</c><c>      6.00000000</c><c>  PAW_PBE Te 08Apr2002                  </c></rc>
   </set>
  </array>
 </atominfo>
 <structure name="initialpos" >
  <crystal>
   <varray name="basis" >
    <v>       5.02497492       0.00000000       0.00000000 </v>
    <v>       2.51248746       4.35175593       0.00000000 </v>
    <v>       0.00000000       0.00000000      67.78155795 </v>
   </varray>
   <i name="volume">   1482.21080612 </i>
   <varray name="rec_basis" >
    <v>       0.19900597      -0.11489615       0.00000000 </v>
    <v>       0.00000000       0.22979230       0.00000000 </v>
    <v>       0.00000000       0.00000000       0.01475328 </v>
   </varray>
  </crystal>
  <varray name="positions" >
   <v>       0.99759950       0.33771153       0.24754869 </v>
   <v>       0.66395081       0.00516671       0.24766421 </v>
  </varray>
  <varray name="selective"  type="logical" >
   <v type="logical" >  T  T  T </v>
   <v type="logical" >  T  T  T </v>
  </varray>
  <nose>
   <v>      -3.00000000       0.00000000       0.00010000       0.00010000 </v>
  </nose>
 </structure>
 <calculation>
  <scstep>
   <time name="dav">   40.59   40.69</time>
   <time name="total">   40.72   40.82</time>
   <energy>
    <i name="alphaZ">      1.90658155 </i>
    <i name="ewald">   9950.14567984 </i>
    <i name="hartreedc"> -12863.64543697 </i>
    <i name="XCdc">     57.81999627 </i>
    <i name="pawpsdc">   2975.93153259 </i>
    <i name="pawaedc">  -2909.54165313 </i>
    <i name="eentropy">     -0.00294667 </i>
    <i name="bandstr">   -495.58188059 </i>
    <i name="atom">   3284.29315156 </i>
    <i name="e_fr_energy">      1.32502446 </i>
    <i name="e_wo_entrp">      1.32797113 </i>
    <i name="e_0_energy">      1.32649779 </i>
   </energy>
  </scstep>
  <scstep>
   <time name="diag">    5.82    5.84</time>
   <time name="diis">   30.10   30.18</time>
   <time name="orth">    0.23    0.23</time>
   <time name="total">   36.17   36.26</time>
   <energy>
    <i name="e_fr_energy">     -4.75575956 </i>
    <i name="e_wo_entrp">     -4.75410303 </i>
    <i name="e_0_energy">     -4.75493129 </i>
   </energy>
  </scstep>
  <scstep>
   <time name="diag">    5.76    5.77</time>
   <time name="diis">   34.67   34.76</time>
   <time name="orth">    0.23    0.23</time>
   <time name="total">   40.68   40.78</time>
   <energy>
    <i name="e_fr_energy">     -4.08740584 </i>
    <i name="e_wo_entrp">     -4.08558087 </i>
    <i name="e_0_energy">     -4.08649335 </i>
   </energy>
  </scstep>
  <scstep>
   <time name="diag">    5.79    5.81</time>
   <time name="diis">   37.29   37.38</time>
   <time name="orth">    0.23    0.23</time>
   <time name="total">   43.33   43.44</time>
   <energy>
    <i name="e_fr_energy">     -4.09523874 </i>
    <i name="e_wo_entrp">     -4.09338664 </i>
    <i name="e_0_energy">     -4.09431269 </i>
   </energy>
  </scstep>
  <scstep>
   <time name="diag">    5.79    5.80</time>
   <time name="diis">   36.53   36.61</time>
   <time name="orth">    0.23    0.23</time>
   <time name="total">   42.56   42.66</time>
   <energy>
    <i name="e_fr_energy">     -4.09460822 </i>
    <i name="e_wo_entrp">     -4.09275654 </i>
    <i name="e_0_energy">     -4.09368238 </i>
   </energy>
  </scstep>
  <scstep>
   <time name="diag">    5.77    5.78</time>
   <time name="diis">   32.52   32.60</time>
   <time name="orth">    0.23    0.23</time>
   <time name="total">   38.53   38.63</time>
   <energy>
    <i name="e_fr_energy">     -4.09462929 </i>
    <i name="e_wo_entrp">     -4.09277773 </i>
    <i name="e_0_energy">     -4.09370351 </i>
   </energy>
  </scstep>
  <scstep>
   <time name="diag">    5.82    5.83</time>
   <time name="diis">   22.43   22.48</time>
   <time name="orth">    0.23    0.23</time>
   <time name="total">   28.50   28.57</time>
   <energy>
    <i name="alphaZ">      1.90658155 </i>
    <i name="ewald">   9950.14567984 </i>
    <i name="hartreedc"> -12863.64543697 </i>
    <i name="XCdc">     57.81999627 </i>
    <i name="pawpsdc">   2975.93153259 </i>
    <i name="pawaedc">  -2909.54165313 </i>
    <i name="eentropy">     -0.00185157 </i>
    <i name="bandstr">   -501.00262930 </i>
    <i name="atom">   3284.29315156 </i>
    <i name="e_fr_energy">     -4.09462915 </i>
    <i name="e_wo_entrp">     -4.09277758 </i>
    <i name="e_0_energy">     -4.09370336 </i>
   </energy>
  </scstep>
  <structure>
   <crystal>
    <varray name="basis" >
     <v>       5.02497492       0.00000000       0.00000000 </v>
     <v>       2.51248746       4.35175593       0.00000000 </v>
     <v>       0.00000000       0.00000000      67.78155795 </v>
    </varray>
    <i name="volume">   1482.21080612 </i>
    <varray name="rec_basis" >
     <v>       0.19900597      -0.11489615       0.00000000 </v>
     <v>       0.00000000       0.22979230       0.00000000 </v>
     <v>       0.00000000       0.00000000       0.01475328 </v>
    </varray>
   </crystal>
   <varray name="positions" >
    <v>       0.99759950       0.33771153       0.24754869 </v>
    <v>       0.66395081       0.00516671       0.24766421 </v>
   </varray>
  </structure>
  <varray name="forces" >
   <v>       0.07121410      -0.34047217       0.00243673 </v>
   <v>      -0.07121410       0.34047217      -0.00243673 </v>
  </varray>
  <varray name="stress" >
   <v>      -5.08791600       0.38932764      -0.00012452 </v>
   <v>       0.38932764      -3.53631274       0.00879381 </v>
   <v>      -0.00012454       0.00879380      -7.63100267 </v>
  </varray>
  <energy>
   <i name="e_fr_energy">     -4.09462915 </i>
   <i name="e_wo_entrp">     -4.09370336 </i>
   <i name="e_0_energy">     -0.00185157 </i>
  </energy>
  <time name="totalsc">  309.74  310.57</time>
  <eigenvalues>
   <array>
    <dimension dim="1">band</dimension>
    <dimension dim="2">kpoint</dimension>
    <dimension dim="3">spin</dimension>
    <field>eigene</field>
    <field>occ</field>
    <set>
     <set comment="spin 1">
      <set comment="kpoint 1">
       <r>  -59.4992    1.0000 </r>
       <r>  -59.4979    1.0000 </r>
       <r>  -59.3967    1.0000 </r>
       <r>  -15.1366    1.0000 </r>
       <r>   -8.9592    1.0000 </r>
       <r>   -8.9577    1.0000 </r>
       <r>   -8.2028    1.0000 </r>
       <r>   -8.2009    1.0000 </r>
       <r>   -8.0817    1.0000 </r>
       <r>   -5.9747    1.0000 </r>
       <r>   -4.7307    0.0000 </r>
       <r>   -4.7254    0.0000 </r>
       <r>   -3.5123    0.0000 </r>
       <r>   -0.1455    0.0000 </r>
       <r>   -0.1328    0.0000 </r>
       <r>    0.3460    0.0000 </r>
      </set>
      <set comment="kpoint 2">
       <r>  -59.4992    1.0000 </r>
       <r>  -59.4979    1.0000 </r>
       <r>  -59.3967    1.0000 </r>
       <r>  -15.1365    1.0000 </r>
       <r>   -8.9592    1.0000 </r>
       <r>   -8.9577    1.0000 </r>
       <r>   -8.2028    1.0000 </r>
       <r>   -8.2009    1.0000 </r>
       <r>   -8.0817    1.0000 </r>
       <r>   -5.9746    1.0000 </r>
       <r>   -4.7310    0.0000 </r>
       <r>   -4.7256    0.0000 </r>
       <r>   -3.5118    0.0000 </r>
       <r>   -0.1454    0.0000 </r>
       <r>   -0.1328    0.0000 </r>
       <r>    0.3467    0.0000 </r>
      </set>
      <set comment="kpoint 3">
       <r>  -59.4992    1.0000 </r>
       <r>  -59.4979    1.0000 </r>
       <r>  -59.3967    1.0000 </r>
       <r>  -15.1365    1.0000 </r>
       <r>   -8.9592    1.0000 </r>
       <r>   -8.9577    1.0000 </r>
       <r>   -8.2028    1.0000 </r>
       <r>   -8.2009    1.0000 </r>
       <r>   -8.0817    1.0000 </r>
       <r>   -5.9745    1.0000 </r>
       <r>   -4.7320    0.0000 </r>
       <r>   -4.7261    0.0000 </r>
       <r>   -3.5105    0.0000 </r>
       <r>   -0.1452    0.0000 </r>
       <r>   -0.1327    0.0000 </r>
       <r>    0.3471    0.0000 </r>
      </set>
      <set comment="kpoint 4">
       <r>  -59.4992    1.0000 </r>
       <r>  -59.4979    1.0000 </r>
       <r>  -59.3967    1.0000 </r>
       <r>  -15.1364    1.0000 </r>
       <r>   -8.9592    1.0000 </r>
       <r>   -8.9576    1.0000 </r>
       <r>   -8.2028    1.0000 </r>
       <r>   -8.2010    1.0000 </r>
       <r>   -8.0817    1.0000 </r>
       <r>   -5.9743    1.0000 </r>
       <r>   -4.7339    0.0000 </r>
       <r>   -4.7268    0.0000 </r>
       <r>   -3.5084    0.0000 </r>
       <r>   -0.1451    0.0000 </r>
       <r>   -0.1327    0.0000 </r>
       <r>    0.6920    0.0000 </r>
      </set>
      <set comment="kpoint 5">
       <r>  -59.4992    1.0000 </r>
       <r>  -59.4979    1.0000 </r>
       <r>  -59.3967    1.0000 </r>
       <r>  -15.1364    1.0000 </r>
       <r>   -8.9591    1.0000 </r>
       <r>   -8.9575    1.0000 </r>
       <r>   -8.2029    1.0000 </r>
       <r>   -8.2010    1.0000 </r>
       <r>   -8.0817    1.0000 </r>
       <r>   -5.9741    1.0000 </r>
       <r>   -4.7366    0.0000 </r>
       <r>   -4.7276    0.0000 </r>
       <r>   -3.5054    0.0000 </r>
       <r>   -0.1446    0.0000 </r>
       <r>   -0.1326    0.0000 </r>
       <r>    0.3722    0.0000 </r>
      </set>
      <set comment="kpoint 6">
       <r>  -59.4992    1.0000 </r>
       <r>  -59.4979    1.0000 </r>
       <r>  -59.3967    1.0000 </r>
       <r>  -15.1363    1.0000 </r>
       <r>   -8.9590    1.0000 </r>
       <r>   -8.9574    1.0000 </r>
       <r>   -8.2030    1.0000 </r>
       <r>   -8.2010    1.0000 </r>
       <r>   -8.0817    1.0000 </r>
       <r>   -5.9737    1.0000 </r>
       <r>   -4.7403    0.0000 </r>
       <r>   -4.7284    0.0000 </r>
       <r>   -3.5015    0.0000 </r>
       <r>   -0.1442    0.0000 </r>
       <r>   -0.1324    0.0000 </r>
       <r>    0.3881    0.0000 </r>
      </set>
      <set comment="kpoint 7">
       <r>  -59.4992    1.0000 </r>
       <r>  -59.4979    1.0000 </r>
       <r>  -59.3967    1.0000 </r>
       <r>  -15.1361    1.0000 </r>
       <r>   -8.9590    1.0000 </r>
       <r>   -8.9572    1.0000 </r>
       <r>   -8.2031    1.0000 </r>
       <r>   -8.2011    1.0000 </r>
       <r>   -8.0817    1.0000 </r>
       <r>   -5.9733    1.0000 </r>
       <r>   -4.7448    0.0000 </r>
       <r>   -4.7294    0.0000 </r>
       <r>   -3.4968    0.0000 </r>
       <r>   -0.1440    0.0000 </r>
       <r>   -0.1323    0.0000 </r>
       <r>    0.7692    0.0000 </r>
      </set>
      <set comment="kpoint 8">
[...]
       </set>
       <set comment="band 13">
        <r>  0.2464  0.0000  0.0000  0.0001  0.0003  0.0000  0.0029  0.0000  0.0001 </r>
        <r>  0.1150  0.0004  0.0000  0.0012  0.0000  0.0000  0.0072  0.0000  0.0000 </r>
       </set>
       <set comment="band 14">
        <r>  0.0248  0.0000  0.0007  0.0000  0.0000  0.0000  0.0046  0.0000  0.0000 </r>
        <r>  0.0001  0.0000  0.0071  0.0000  0.0000  0.0000  0.0106  0.0000  0.0000 </r>
       </set>
       <set comment="band 15">
        <r>  0.0024  0.0000  0.0069  0.0000  0.0000  0.0000  0.0004  0.0000  0.0000 </r>
        <r>  0.0000  0.0000  0.0730  0.0000  0.0000  0.0000  0.0010  0.0000  0.0000 </r>
       </set>
       <set comment="band 16">
        <r>  0.0003  0.0672  0.0000  0.0007  0.0003  0.0000  0.0000  0.0000  0.0165 </r>
        <r>  0.0000  0.0174  0.0000  0.0004  0.0010  0.0000  0.0001  0.0000  0.0907 </r>
       </set>
      </set>
      <set comment="kpoint 596">
       <set comment="band 1">
        <r>  0.0000  0.0034  0.0000  0.9913  0.0000  0.0000  0.0000  0.0000  0.0000 </r>
        <r>  0.0000  0.0000  0.0000  0.0000  0.0000  0.0000  0.0000  0.0000  0.0000 </r>
       </set>
       <set comment="band 2">
        <r>  0.0000  0.9913  0.0000  0.0034  0.0000  0.0000  0.0000  0.0000  0.0000 </r>
        <r>  0.0000  0.0000  0.0000  0.0000  0.0000  0.0000  0.0000  0.0000  0.0000 </r>
       </set>
       <set comment="band 3">
        <r>  0.0000  0.0000  0.9948  0.0000  0.0000  0.0000  0.0000  0.0000  0.0000 </r>
        <r>  0.0000  0.0000  0.0000  0.0000  0.0000  0.0000  0.0000  0.0000  0.0000 </r>
       </set>
       <set comment="band 4">
        <r>  0.0148  0.0000  0.0000  0.0000  0.0000  0.0000  0.0084  0.0000  0.0000 </r>
        <r>  0.6478  0.0000  0.0000  0.0000  0.0000  0.0000  0.0001  0.0000  0.0000 </r>
       </set>
       <set comment="band 5">
        <r>  0.0000  0.0000  0.0000  0.0010  0.7046  0.0000  0.0001  0.0000  0.0060 </r>
        <r>  0.0000  0.0007  0.0000  0.0837  0.0002  0.0000  0.0000  0.0000  0.0000 </r>
       </set>
       <set comment="band 6">
        <r>  0.0000  0.0009  0.0000  0.0000  0.0060  0.0000  0.0000  0.0000  0.7050 </r>
        <r>  0.0000  0.0834  0.0000  0.0007  0.0000  0.0000  0.0000  0.0000  0.0002 </r>
       </set>
       <set comment="band 7">
        <r>  0.0000  0.0000  0.0000  0.0000  0.0000  0.0049  0.0000  0.8871  0.0000 </r>
        <r>  0.0000  0.0000  0.0000  0.0000  0.0000  0.0000  0.0000  0.0006  0.0000 </r>
       </set>
       <set comment="band 8">
        <r>  0.0000  0.0000  0.0000  0.0000  0.0000  0.8872  0.0000  0.0049  0.0000 </r>
        <r>  0.0000  0.0000  0.0000  0.0000  0.0000  0.0005  0.0000  0.0000  0.0000 </r>
       </set>
       <set comment="band 9">
        <r>  0.0009  0.0000  0.0000  0.0000  0.0001  0.0000  0.8850  0.0000  0.0000 </r>
        <r>  0.0074  0.0000  0.0000  0.0000  0.0000  0.0000  0.0009  0.0000  0.0000 </r>
       </set>
       <set comment="band 10">
        <r>  0.0000  0.0000  0.0060  0.0000  0.0000  0.0000  0.0000  0.0000  0.0000 </r>
        <r>  0.0000  0.0000  0.3822  0.0000  0.0000  0.0000  0.0000  0.0000  0.0000 </r>
       </set>
       <set comment="band 11">
        <r>  0.0006  0.0006  0.0000  0.0133  0.1953  0.0000  0.0000  0.0000  0.0084 </r>
        <r>  0.0002  0.0161  0.0000  0.3723  0.0006  0.0000  0.0000  0.0000  0.0000 </r>
       </set>
       <set comment="band 12">
        <r>  0.0001  0.0131  0.0000  0.0006  0.0085  0.0000  0.0000  0.0000  0.1953 </r>
        <r>  0.0000  0.3736  0.0000  0.0162  0.0000  0.0000  0.0000  0.0000  0.0006 </r>
       </set>
       <set comment="band 13">
        <r>  0.2468  0.0000  0.0000  0.0000  0.0002  0.0000  0.0029  0.0000  0.0001 </r>
        <r>  0.1152  0.0003  0.0000  0.0008  0.0000  0.0000  0.0073  0.0000  0.0000 </r>
       </set>
       <set comment="band 14">
        <r>  0.0248  0.0000  0.0007  0.0000  0.0000  0.0000  0.0047  0.0000  0.0000 </r>
        <r>  0.0001  0.0000  0.0070  0.0000  0.0000  0.0000  0.0106  0.0000  0.0000 </r>
       </set>
       <set comment="band 15">
        <r>  0.0023  0.0000  0.0069  0.0000  0.0000  0.0000  0.0004  0.0000  0.0000 </r>
        <r>  0.0000  0.0000  0.0731  0.0000  0.0000  0.0000  0.0010  0.0000  0.0000 </r>
       </set>
       <set comment="band 16">
        <r>  0.0002  0.0672  0.0000  0.0007  0.0003  0.0000  0.0000  0.0000  0.0166 </r>
        <r>  0.0000  0.0174  0.0000  0.0004  0.0011  0.0000  0.0001  0.0000  0.0906 </r>
       </set>
      </set>
      <set comment="kpoint 597">
       <set comment="band 1">
        <r>  0.0000  0.0036  0.0000  0.9911  0.0000  0.0000  0.0000  0.0000  0.0000 </r>
        <r>  0.0000  0.0000  0.0000  0.0000  0.0000  0.0000  0.0000  0.0000  0.0000 </r>
       </set>
       <set comment="band 2">
        <r>  0.0000  0.9911  0.0000  0.0036  0.0000  0.0000  0.0000  0.0000  0.0000 </r>
        <r>  0.0000  0.0000  0.0000  0.0000  0.0000  0.0000  0.0000  0.0000  0.0000 </r>
       </set>
       <set comment="band 3">
        <r>  0.0000  0.0000  0.9948  0.0000  0.0000  0.0000  0.0000  0.0000  0.0000 </r>
        <r>  0.0000  0.0000  0.0000  0.0000  0.0000  0.0000  0.0000  0.0000  0.0000 </r>
       </set>
       <set comment="band 4">
        <r>  0.0148  0.0000  0.0000  0.0000  0.0000  0.0000  0.0084  0.0000  0.0000 </r>
        <r>  0.6478  0.0000  0.0000  0.0000  0.0000  0.0000  0.0001  0.0000  0.0000 </r>
       </set>
       <set comment="band 5">
        <r>  0.0000  0.0000  0.0000  0.0010  0.7060  0.0000  0.0000  0.0000  0.0046 </r>
        <r>  0.0000  0.0005  0.0000  0.0838  0.0002  0.0000  0.0000  0.0000  0.0000 </r>
       </set>
       <set comment="band 6">
        <r>  0.0000  0.0009  0.0000  0.0000  0.0046  0.0000  0.0000  0.0000  0.7064 </r>
        <r>  0.0000  0.0836  0.0000  0.0005  0.0000  0.0000  0.0000  0.0000  0.0002 </r>
       </set>
       <set comment="band 7">
        <r>  0.0000  0.0000  0.0000  0.0000  0.0000  0.0041  0.0000  0.8879  0.0000 </r>
        <r>  0.0000  0.0000  0.0000  0.0000  0.0000  0.0000  0.0000  0.0006  0.0000 </r>
       </set>
       <set comment="band 8">
        <r>  0.0000  0.0000  0.0000  0.0000  0.0000  0.8880  0.0000  0.0041  0.0000 </r>
        <r>  0.0000  0.0000  0.0000  0.0000  0.0000  0.0005  0.0000  0.0000  0.0000 </r>
       </set>
       <set comment="band 9">
        <r>  0.0009  0.0000  0.0000  0.0000  0.0000  0.0000  0.8851  0.0000  0.0000 </r>
        <r>  0.0074  0.0000  0.0000  0.0000  0.0000  0.0000  0.0009  0.0000  0.0000 </r>
       </set>
       <set comment="band 10">
        <r>  0.0000  0.0000  0.0060  0.0000  0.0000  0.0000  0.0000  0.0000  0.0000 </r>
        <r>  0.0000  0.0000  0.3822  0.0000  0.0000  0.0000  0.0000  0.0000  0.0000 </r>
       </set>
       <set comment="band 11">
        <r>  0.0003  0.0003  0.0000  0.0136  0.1992  0.0000  0.0000  0.0000  0.0047 </r>
        <r>  0.0001  0.0089  0.0000  0.3799  0.0006  0.0000  0.0000  0.0000  0.0000 </r>
       </set>
       <set comment="band 12">
        <r>  0.0001  0.0134  0.0000  0.0003  0.0047  0.0000  0.0000  0.0000  0.1992 </r>
        <r>  0.0000  0.3809  0.0000  0.0090  0.0000  0.0000  0.0000  0.0000  0.0006 </r>
       </set>
       <set comment="band 13">
        <r>  0.2471  0.0000  0.0000  0.0000  0.0001  0.0000  0.0029  0.0000  0.0000 </r>
        <r>  0.1153  0.0002  0.0000  0.0004  0.0000  0.0000  0.0073  0.0000  0.0000 </r>
       </set>
       <set comment="band 14">
        <r>  0.0248  0.0000  0.0007  0.0000  0.0000  0.0000  0.0047  0.0000  0.0000 </r>
        <r>  0.0001  0.0000  0.0069  0.0000  0.0000  0.0000  0.0106  0.0000  0.0000 </r>
       </set>
       <set comment="band 15">
        <r>  0.0023  0.0000  0.0069  0.0000  0.0000  0.0000  0.0004  0.0000  0.0000 </r>
        <r>  0.0000  0.0000  0.0732  0.0000  0.0000  0.0000  0.0010  0.0000  0.0000 </r>
       </set>
       <set comment="band 16">
        <r>  0.0002  0.0671  0.0000  0.0008  0.0003  0.0000  0.0000  0.0000  0.0166 </r>
        <r>  0.0000  0.0174  0.0000  0.0003  0.0011  0.0000  0.0001  0.0000  0.0906 </r>
       </set>
      </set>
      <set comment="kpoint 598">
       <set comment="band 1">
        <r>  0.0000  0.0036  0.0000  0.9911  0.0000  0.0000  0.0000  0.0000  0.0000 </r>
        <r>  0.0000  0.0000  0.0000  0.0000  0.0000  0.0000  0.0000  0.0000  0.0000 </r>
       </set>
       <set comment="band 2">
        <r>  0.0000  0.9911  0.0000  0.0036  0.0000  0.0000  0.0000  0.0000  0.0000 </r>
        <r>  0.0000  0.0000  0.0000  0.0000  0.0000  0.0000  0.0000  0.0000  0.0000 </r>
       </set>
       <set comment="band 3">
        <r>  0.0000  0.0000  0.9948  0.0000  0.0000  0.0000  0.0000  0.0000  0.0000 </r>
        <r>  0.0000  0.0000  0.0000  0.0000  0.0000  0.0000  0.0000  0.0000  0.0000 </r>
       </set>
       <set comment="band 4">
        <r>  0.0148  0.0000  0.0000  0.0000  0.0000  0.0000  0.0084  0.0000  0.0000 </r>
        <r>  0.6478  0.0000  0.0000  0.0000  0.0000  0.0000  0.0001  0.0000  0.0000 </r>
       </set>
       <set comment="band 5">
        <r>  0.0000  0.0000  0.0000  0.0010  0.7071  0.0000  0.0000  0.0000  0.0036 </r>
        <r>  0.0000  0.0004  0.0000  0.0840  0.0002  0.0000  0.0000  0.0000  0.0000 </r>
       </set>
       <set comment="band 6">
        <r>  0.0000  0.0009  0.0000  0.0000  0.0036  0.0000  0.0000  0.0000  0.7074 </r>
        <r>  0.0000  0.0837  0.0000  0.0004  0.0000  0.0000  0.0000  0.0000  0.0002 </r>
       </set>
       <set comment="band 7">
        <r>  0.0000  0.0000  0.0000  0.0000  0.0000  0.0035  0.0000  0.8885  0.0000 </r>
        <r>  0.0000  0.0000  0.0000  0.0000  0.0000  0.0000  0.0000  0.0006  0.0000 </r>
       </set>
       <set comment="band 8">
        <r>  0.0000  0.0000  0.0000  0.0000  0.0000  0.8886  0.0000  0.0035  0.0000 </r>
        <r>  0.0000  0.0000  0.0000  0.0000  0.0000  0.0005  0.0000  0.0000  0.0000 </r>
       </set>
       <set comment="band 9">
        <r>  0.0009  0.0000  0.0000  0.0000  0.0000  0.0000  0.8851  0.0000  0.0000 </r>
        <r>  0.0074  0.0000  0.0000  0.0000  0.0000  0.0000  0.0009  0.0000  0.0000 </r>
       </set>
       <set comment="band 10">
        <r>  0.0000  0.0000  0.0060  0.0000  0.0000  0.0000  0.0000  0.0000  0.0000 </r>
        <r>  0.0000  0.0000  0.3822  0.0000  0.0000  0.0000  0.0000  0.0000  0.0000 </r>
       </set>
       <set comment="band 11">
        <r>  0.0001  0.0002  0.0000  0.0138  0.2017  0.0000  0.0000  0.0000  0.0022 </r>
        <r>  0.0001  0.0043  0.0000  0.3849  0.0006  0.0000  0.0000  0.0000  0.0000 </r>
       </set>
       <set comment="band 12">
        <r>  0.0000  0.0136  0.0000  0.0002  0.0023  0.0000  0.0000  0.0000  0.2016 </r>
        <r>  0.0000  0.3856  0.0000  0.0043  0.0000  0.0000  0.0000  0.0000  0.0006 </r>
       </set>
       <set comment="band 13">
        <r>  0.2473  0.0000  0.0000  0.0000  0.0001  0.0000  0.0029  0.0000  0.0000 </r>
        <r>  0.1154  0.0001  0.0000  0.0002  0.0000  0.0000  0.0073  0.0000  0.0000 </r>
       </set>
       <set comment="band 14">
        <r>  0.0248  0.0000  0.0007  0.0000  0.0000  0.0000  0.0047  0.0000  0.0000 </r>
        <r>  0.0001  0.0000  0.0068  0.0000  0.0000  0.0000  0.0106  0.0000  0.0000 </r>
       </set>
       <set comment="band 15">
        <r>  0.0023  0.0000  0.0069  0.0000  0.0000  0.0000  0.0004  0.0000  0.0000 </r>
        <r>  0.0000  0.0000  0.0733  0.0000  0.0000  0.0000  0.0009  0.0000  0.0000 </r>
       </set>
       <set comment="band 16">
        <r>  0.0002  0.0671  0.0000  0.0008  0.0003  0.0000  0.0000  0.0000  0.0166 </r>
        <r>  0.0000  0.0175  0.0000  0.0003  0.0012  0.0000  0.0001  0.0000  0.0906 </r>
       </set>
      </set>
      <set comment="kpoint 599">
       <set comment="band 1">
        <r>  0.0000  0.0037  0.0000  0.9910  0.0000  0.0000  0.0000  0.0000  0.0000 </r>
        <r>  0.0000  0.0000  0.0000  0.0000  0.0000  0.0000  0.0000  0.0000  0.0000 </r>
       </set>
       <set comment="band 2">
        <r>  0.0000  0.9910  0.0000  0.0037  0.0000  0.0000  0.0000  0.0000  0.0000 </r>
        <r>  0.0000  0.0000  0.0000  0.0000  0.0000  0.0000  0.0000  0.0000  0.0000 </r>
       </set>
       <set comment="band 3">
        <r>  0.0000  0.0000  0.9948  0.0000  0.0000  0.0000  0.0000  0.0000  0.0000 </r>
        <r>  0.0000  0.0000  0.0000  0.0000  0.0000  0.0000  0.0000  0.0000  0.0000 </r>
       </set>
       <set comment="band 4">
        <r>  0.0148  0.0000  0.0000  0.0000  0.0000  0.0000  0.0084  0.0000  0.0000 </r>
        <r>  0.6478  0.0000  0.0000  0.0000  0.0000  0.0000  0.0001  0.0000  0.0000 </r>
       </set>
       <set comment="band 5">
        <r>  0.0000  0.0000  0.0000  0.0010  0.7076  0.0000  0.0000  0.0000  0.0030 </r>
        <r>  0.0000  0.0004  0.0000  0.0840  0.0002  0.0000  0.0000  0.0000  0.0000 </r>
       </set>
       <set comment="band 6">
        <r>  0.0000  0.0009  0.0000  0.0000  0.0030  0.0000  0.0000  0.0000  0.7079 </r>
        <r>  0.0000  0.0837  0.0000  0.0004  0.0000  0.0000  0.0000  0.0000  0.0002 </r>
       </set>
       <set comment="band 7">
        <r>  0.0000  0.0000  0.0000  0.0000  0.0000  0.0032  0.0000  0.8888  0.0000 </r>
        <r>  0.0000  0.0000  0.0000  0.0000  0.0000  0.0000  0.0000  0.0006  0.0000 </r>
       </set>
       <set comment="band 8">
        <r>  0.0000  0.0000  0.0000  0.0000  0.0000  0.8889  0.0000  0.0032  0.0000 </r>
        <r>  0.0000  0.0000  0.0000  0.0000  0.0000  0.0005  0.0000  0.0000  0.0000 </r>
       </set>
       <set comment="band 9">
        <r>  0.0009  0.0000  0.0000  0.0000  0.0000  0.0000  0.8851  0.0000  0.0000 </r>
        <r>  0.0074  0.0000  0.0000  0.0000  0.0000  0.0000  0.0009  0.0000  0.0000 </r>
       </set>
       <set comment="band 10">
        <r>  0.0000  0.0000  0.0060  0.0000  0.0000  0.0000  0.0000  0.0000  0.0000 </r>
        <r>  0.0000  0.0000  0.3822  0.0000  0.0000  0.0000  0.0000  0.0000  0.0000 </r>
       </set>
       <set comment="band 11">
        <r>  0.0000  0.0001  0.0000  0.0139  0.2029  0.0000  0.0000  0.0000  0.0011 </r>
        <r>  0.0000  0.0020  0.0000  0.3873  0.0006  0.0000  0.0000  0.0000  0.0000 </r>
       </set>
       <set comment="band 12">
        <r>  0.0000  0.0136  0.0000  0.0001  0.0011  0.0000  0.0000  0.0000  0.2028 </r>
        <r>  0.0000  0.3880  0.0000  0.0020  0.0000  0.0000  0.0000  0.0000  0.0006 </r>
       </set>
       <set comment="band 13">
        <r>  0.2474  0.0000  0.0000  0.0000  0.0000  0.0000  0.0029  0.0000  0.0000 </r>
        <r>  0.1154  0.0000  0.0000  0.0001  0.0000  0.0000  0.0073  0.0000  0.0000 </r>
       </set>
       <set comment="band 14">
        <r>  0.0249  0.0000  0.0007  0.0000  0.0000  0.0000  0.0047  0.0000  0.0000 </r>
        <r>  0.0001  0.0000  0.0068  0.0000  0.0000  0.0000  0.0106  0.0000  0.0000 </r>
       </set>
       <set comment="band 15">
        <r>  0.0023  0.0000  0.0069  0.0000  0.0000  0.0000  0.0004  0.0000  0.0000 </r>
        <r>  0.0000  0.0000  0.0733  0.0000  0.0000  0.0000  0.0009  0.0000  0.0000 </r>
       </set>
       <set comment="band 16">
        <r>  0.0002  0.0670  0.0000  0.0009  0.0003  0.0000  0.0000  0.0000  0.0166 </r>
        <r>  0.0000  0.0175  0.0000  0.0003  0.0013  0.0000  0.0001  0.0000  0.0905 </r>
       </set>
      </set>
      <set comment="kpoint 600">
       <set comment="band 1">
        <r>  0.0000  0.0035  0.0000  0.9912  0.0000  0.0000  0.0000  0.0000  0.0000 </r>
        <r>  0.0000  0.0000  0.0000  0.0000  0.0000  0.0000  0.0000  0.0000  0.0000 </r>
       </set>
       <set comment="band 2">
        <r>  0.0000  0.9912  0.0000  0.0035  0.0000  0.0000  0.0000  0.0000  0.0000 </r>
        <r>  0.0000  0.0000  0.0000  0.0000  0.0000  0.0000  0.0000  0.0000  0.0000 </r>
       </set>
       <set comment="band 3">
        <r>  0.0000  0.0000  0.9948  0.0000  0.0000  0.0000  0.0000  0.0000  0.0000 </r>
        <r>  0.0000  0.0000  0.0000  0.0000  0.0000  0.0000  0.0000  0.0000  0.0000 </r>
       </set>
       <set comment="band 4">
        <r>  0.0148  0.0000  0.0000  0.0000  0.0000  0.0000  0.0084  0.0000  0.0000 </r>
        <r>  0.6478  0.0000  0.0000  0.0000  0.0000  0.0000  0.0001  0.0000  0.0000 </r>
       </set>
       <set comment="band 5">
        <r>  0.0000  0.0000  0.0000  0.0010  0.7078  0.0000  0.0000  0.0000  0.0028 </r>
        <r>  0.0000  0.0003  0.0000  0.0840  0.0002  0.0000  0.0000  0.0000  0.0000 </r>
       </set>
       <set comment="band 6">
        <r>  0.0000  0.0009  0.0000  0.0000  0.0028  0.0000  0.0000  0.0000  0.7081 </r>
        <r>  0.0000  0.0838  0.0000  0.0003  0.0000  0.0000  0.0000  0.0000  0.0002 </r>
       </set>
       <set comment="band 7">
        <r>  0.0000  0.0000  0.0000  0.0000  0.0000  0.0031  0.0000  0.8889  0.0000 </r>
        <r>  0.0000  0.0000  0.0000  0.0000  0.0000  0.0000  0.0000  0.0006  0.0000 </r>
       </set>
       <set comment="band 8">
        <r>  0.0000  0.0000  0.0000  0.0000  0.0000  0.8890  0.0000  0.0031  0.0000 </r>
        <r>  0.0000  0.0000  0.0000  0.0000  0.0000  0.0005  0.0000  0.0000  0.0000 </r>
       </set>
       <set comment="band 9">
        <r>  0.0009  0.0000  0.0000  0.0000  0.0000  0.0000  0.8851  0.0000  0.0000 </r>
        <r>  0.0074  0.0000  0.0000  0.0000  0.0000  0.0000  0.0009  0.0000  0.0000 </r>
       </set>
       <set comment="band 10">
        <r>  0.0000  0.0000  0.0060  0.0000  0.0000  0.0000  0.0000  0.0000  0.0000 </r>
        <r>  0.0000  0.0000  0.3822  0.0000  0.0000  0.0000  0.0000  0.0000  0.0000 </r>
       </set>
       <set comment="band 11">
        <r>  0.0000  0.0001  0.0000  0.0139  0.2033  0.0000  0.0000  0.0000  0.0007 </r>
        <r>  0.0000  0.0014  0.0000  0.3880  0.0006  0.0000  0.0000  0.0000  0.0000 </r>
       </set>
       <set comment="band 12">
        <r>  0.0000  0.0137  0.0000  0.0000  0.0007  0.0000  0.0000  0.0000  0.2032 </r>
        <r>  0.0000  0.3886  0.0000  0.0014  0.0000  0.0000  0.0000  0.0000  0.0006 </r>
       </set>
       <set comment="band 13">
        <r>  0.2474  0.0000  0.0000  0.0000  0.0000  0.0000  0.0029  0.0000  0.0000 </r>
        <r>  0.1155  0.0000  0.0000  0.0000  0.0000  0.0000  0.0073  0.0000  0.0000 </r>
       </set>
       <set comment="band 14">
        <r>  0.0249  0.0000  0.0007  0.0000  0.0000  0.0000  0.0047  0.0000  0.0000 </r>
        <r>  0.0001  0.0000  0.0068  0.0000  0.0000  0.0000  0.0106  0.0000  0.0000 </r>
       </set>
       <set comment="band 15">
        <r>  0.0023  0.0000  0.0069  0.0000  0.0000  0.0000  0.0004  0.0000  0.0000 </r>
        <r>  0.0000  0.0000  0.0734  0.0000  0.0000  0.0000  0.0009  0.0000  0.0000 </r>
       </set>
       <set comment="band 16">
        <r>  0.0002  0.0670  0.0000  0.0010  0.0002  0.0000  0.0000  0.0000  0.0166 </r>
        <r>  0.0000  0.0175  0.0000  0.0003  0.0013  0.0000  0.0001  0.0000  0.0904 </r>
       </set>
      </set>
     </set>
    </set>
   </array>
  </projected>
 </calculation>
 <structure name="finalpos" >
  <crystal>
   <varray name="basis" >
    <v>       5.02497492       0.00000000       0.00000000 </v>
    <v>       2.51248746       4.35175593       0.00000000 </v>
    <v>       0.00000000       0.00000000      67.78155795 </v>
   </varray>
   <i name="volume">   1482.21080612 </i>
   <varray name="rec_basis" >
    <v>       0.19900597      -0.11489615       0.00000000 </v>
    <v>       0.00000000       0.22979230       0.00000000 </v>
    <v>       0.00000000       0.00000000       0.01475328 </v>
   </varray>
  </crystal>
  <varray name="positions" >
   <v>       0.99759950       0.33771153       0.24754869 </v>
   <v>       0.66395081       0.00516671       0.24766421 </v>
  </varray>
  <varray name="selective"  type="logical" >
   <v type="logical" >  T  T  T </v>
   <v type="logical" >  T  T  T </v>
  </varray>
  <nose>
   <v>      -3.00000000       0.00000000       0.00010000       0.00010000 </v>
  </nose>
 </structure>
</modeling>
